
     Program PWSCF v.7.2 starts on 13Jun2025 at 22:31: 5 

     This program is part of the open-source Quantum ESPRESSO suite
     for quantum simulation of materials; please cite
         "P. Giannozzi et al., J. Phys.:Condens. Matter 21 395502 (2009);
         "P. Giannozzi et al., J. Phys.:Condens. Matter 29 465901 (2017);
         "P. Giannozzi et al., J. Chem. Phys. 152 154105 (2020);
          URL http://www.quantum-espresso.org", 
     in publications or presentations arising from this work. More details at
     http://www.quantum-espresso.org/quote

     Parallel version (MPI & OpenMP), running on      64 processor cores
     Number of MPI processes:                64
     Threads/MPI process:                     1

     MPI processes distributed on     1 nodes
     219863 MiB available memory on the printing compute node when the environment starts

     Reading input from ru_kp_11.in

     Current dimensions of program PWSCF are:
     Max number of different atomic species (ntypx) = 10
     Max number of k-points (npk) =  40000
     Max angular momentum in pseudopotentials (lmaxx) =  4
     Message from routine read_pp_mesh:
     mismatch in mesh size, discarding the one in header
     file Mg.pbesol-n-kjpaw_psl.0.3.0.UPF: wavefunction(s)  3S renormalized
     Found identity + (  0.0000  0.5000 -0.5000) symmetry
     This is a supercell, fractional translations are disabled
     Message from routine setup:
     using ibrav=0 with symmetry is DISCOURAGED, use correct ibrav instead

     K-points division:     npool     =       2
     R & G space division:  proc/nbgrp/npool/nimage =      32
     Subspace diagonalization in iterative solution of the eigenvalue problem:
     a serial algorithm will be used


     Parallelization info
     --------------------
     sticks:   dense  smooth     PW     G-vecs:    dense   smooth      PW
     Min         416     138     37                36246     6970     981
     Max         417     139     38                36253     6975     986
     Sum       13341    4445   1201              1160031   223135   31463

     Using Slab Decomposition



     bravais-lattice index     =            0
     lattice parameter (alat)  =      12.4630  a.u.
     unit-cell volume          =    1935.8122 (a.u.)^3
     number of atoms/cell      =           36
     number of atomic types    =            3
     number of electrons       =       104.00
     number of Kohn-Sham states=           62
     kinetic-energy cutoff     =      90.0000  Ry
     charge density cutoff     =    1080.0000  Ry
     scf convergence threshold =      7.2E-09
     mixing beta               =       0.4000
     number of iterations used =            8  plain     mixing
     Exchange-correlation= SLA PW PSX PSC
                           (   1   4  10   8   0   0   0)

     celldm(1)=  12.462956  celldm(2)=   0.000000  celldm(3)=   0.000000
     celldm(4)=   0.000000  celldm(5)=   0.000000  celldm(6)=   0.000000

     crystal axes: (cart. coord. in units of alat)
               a(1) = (   1.000000   0.000000   0.000000 )  
               a(2) = (   0.000000   1.000000   0.000000 )  
               a(3) = (   0.000000   0.000000   1.000000 )  

     reciprocal axes: (cart. coord. in units 2 pi/alat)
               b(1) = (  1.000000  0.000000  0.000000 )  
               b(2) = (  0.000000  1.000000  0.000000 )  
               b(3) = (  0.000000  0.000000  1.000000 )  


     PseudoPot. # 1 for H  read from file:
     ./pseudo/H.pbesol-rrkjus_psl.1.0.0.UPF
     MD5 check sum: 0324ed591cc0147dc3d88cad0d33f665
     Pseudo is Ultrasoft, Zval =  1.0
     Generated using "atomic" code by A. Dal Corso  v.6.0 svn rev. 13079
     Using radial grid of  929 points,  2 beta functions with: 
                l(1) =   0
                l(2) =   0
     Q(r) pseudized with 0 coefficients 


     PseudoPot. # 2 for Mg read from file:
     ./pseudo/Mg.pbesol-n-kjpaw_psl.0.3.0.UPF
     MD5 check sum: a6c8d2ff726a5f7005dea00130d82930
     Pseudo is Projector augmented-wave + core cor, Zval =  2.0
     Generated using "atomic" code by A. Dal Corso  v.6.1 svn rev. 13369
     Shape of augmentation charge: PSQ
     Using radial grid of 1129 points,  4 beta functions with: 
                l(1) =   0
                l(2) =   0
                l(3) =   1
                l(4) =   1
     Q(r) pseudized with 0 coefficients 


     PseudoPot. # 3 for Ru read from file:
     ./pseudo/Ru.upf
     MD5 check sum: be3bb57e49b2afd7571f8dd5d9c7d987
     Pseudo is Projector augmented-wave + core cor, Zval = 16.0
     Generated using ATOMPAW code
     Shape of augmentation charge: SINC**2
     Using radial grid of 2342 points,  6 beta functions with: 
                l(1) =   0
                l(2) =   0
                l(3) =   1
                l(4) =   1
                l(5) =   2
                l(6) =   2
     Q(r) pseudized with 0 coefficients 


     atomic species   valence    mass     pseudopotential
        H              1.00     1.00794     H ( 1.00)
        Mg             2.00    24.30500     Mg( 1.00)
        Ru            16.00   101.07000     Ru( 1.00)

     48 Sym. Ops., with inversion, found


                                    s                        frac. trans.

      isym =  1     identity                                     

 cryst.   s( 1) = (     1          0          0      )
                  (     0          1          0      )
                  (     0          0          1      )

 cart.    s( 1) = (  1.0000000  0.0000000  0.0000000 )
                  (  0.0000000  1.0000000  0.0000000 )
                  (  0.0000000  0.0000000  1.0000000 )


      isym =  2     180 deg rotation - cart. axis [0,0,1]        

 cryst.   s( 2) = (    -1          0          0      )
                  (     0         -1          0      )
                  (     0          0          1      )

 cart.    s( 2) = ( -1.0000000  0.0000000  0.0000000 )
                  (  0.0000000 -1.0000000  0.0000000 )
                  (  0.0000000  0.0000000  1.0000000 )


      isym =  3     180 deg rotation - cart. axis [0,1,0]        

 cryst.   s( 3) = (    -1          0          0      )
                  (     0          1          0      )
                  (     0          0         -1      )

 cart.    s( 3) = ( -1.0000000  0.0000000  0.0000000 )
                  (  0.0000000  1.0000000  0.0000000 )
                  (  0.0000000  0.0000000 -1.0000000 )


      isym =  4     180 deg rotation - cart. axis [1,0,0]        

 cryst.   s( 4) = (     1          0          0      )
                  (     0         -1          0      )
                  (     0          0         -1      )

 cart.    s( 4) = (  1.0000000  0.0000000  0.0000000 )
                  (  0.0000000 -1.0000000  0.0000000 )
                  (  0.0000000  0.0000000 -1.0000000 )


      isym =  5     180 deg rotation - cart. axis [1,1,0]        

 cryst.   s( 5) = (     0          1          0      )
                  (     1          0          0      )
                  (     0          0         -1      )

 cart.    s( 5) = (  0.0000000  1.0000000  0.0000000 )
                  (  1.0000000  0.0000000  0.0000000 )
                  (  0.0000000  0.0000000 -1.0000000 )


      isym =  6     180 deg rotation - cart. axis [1,-1,0]       

 cryst.   s( 6) = (     0         -1          0      )
                  (    -1          0          0      )
                  (     0          0         -1      )

 cart.    s( 6) = (  0.0000000 -1.0000000  0.0000000 )
                  ( -1.0000000  0.0000000  0.0000000 )
                  (  0.0000000  0.0000000 -1.0000000 )


      isym =  7      90 deg rotation - cart. axis [0,0,-1]       

 cryst.   s( 7) = (     0         -1          0      )
                  (     1          0          0      )
                  (     0          0          1      )

 cart.    s( 7) = (  0.0000000  1.0000000  0.0000000 )
                  ( -1.0000000  0.0000000  0.0000000 )
                  (  0.0000000  0.0000000  1.0000000 )


      isym =  8      90 deg rotation - cart. axis [0,0,1]        

 cryst.   s( 8) = (     0          1          0      )
                  (    -1          0          0      )
                  (     0          0          1      )

 cart.    s( 8) = (  0.0000000 -1.0000000  0.0000000 )
                  (  1.0000000  0.0000000  0.0000000 )
                  (  0.0000000  0.0000000  1.0000000 )


      isym =  9     180 deg rotation - cart. axis [1,0,1]        

 cryst.   s( 9) = (     0          0          1      )
                  (     0         -1          0      )
                  (     1          0          0      )

 cart.    s( 9) = (  0.0000000  0.0000000  1.0000000 )
                  (  0.0000000 -1.0000000  0.0000000 )
                  (  1.0000000  0.0000000  0.0000000 )


      isym = 10     180 deg rotation - cart. axis [-1,0,1]       

 cryst.   s(10) = (     0          0         -1      )
                  (     0         -1          0      )
                  (    -1          0          0      )

 cart.    s(10) = (  0.0000000  0.0000000 -1.0000000 )
                  (  0.0000000 -1.0000000  0.0000000 )
                  ( -1.0000000  0.0000000  0.0000000 )


      isym = 11      90 deg rotation - cart. axis [0,1,0]        

 cryst.   s(11) = (     0          0         -1      )
                  (     0          1          0      )
                  (     1          0          0      )

 cart.    s(11) = (  0.0000000  0.0000000  1.0000000 )
                  (  0.0000000  1.0000000  0.0000000 )
                  ( -1.0000000  0.0000000  0.0000000 )


      isym = 12      90 deg rotation - cart. axis [0,-1,0]       

 cryst.   s(12) = (     0          0          1      )
                  (     0          1          0      )
                  (    -1          0          0      )

 cart.    s(12) = (  0.0000000  0.0000000 -1.0000000 )
                  (  0.0000000  1.0000000  0.0000000 )
                  (  1.0000000  0.0000000  0.0000000 )


      isym = 13     180 deg rotation - cart. axis [0,1,1]        

 cryst.   s(13) = (    -1          0          0      )
                  (     0          0          1      )
                  (     0          1          0      )

 cart.    s(13) = ( -1.0000000  0.0000000  0.0000000 )
                  (  0.0000000  0.0000000  1.0000000 )
                  (  0.0000000  1.0000000  0.0000000 )


      isym = 14     180 deg rotation - cart. axis [0,1,-1]       

 cryst.   s(14) = (    -1          0          0      )
                  (     0          0         -1      )
                  (     0         -1          0      )

 cart.    s(14) = ( -1.0000000  0.0000000  0.0000000 )
                  (  0.0000000  0.0000000 -1.0000000 )
                  (  0.0000000 -1.0000000  0.0000000 )


      isym = 15      90 deg rotation - cart. axis [-1,0,0]       

 cryst.   s(15) = (     1          0          0      )
                  (     0          0         -1      )
                  (     0          1          0      )

 cart.    s(15) = (  1.0000000  0.0000000  0.0000000 )
                  (  0.0000000  0.0000000  1.0000000 )
                  (  0.0000000 -1.0000000  0.0000000 )


      isym = 16      90 deg rotation - cart. axis [1,0,0]        

 cryst.   s(16) = (     1          0          0      )
                  (     0          0          1      )
                  (     0         -1          0      )

 cart.    s(16) = (  1.0000000  0.0000000  0.0000000 )
                  (  0.0000000  0.0000000 -1.0000000 )
                  (  0.0000000  1.0000000  0.0000000 )


      isym = 17     120 deg rotation - cart. axis [-1,-1,-1]     

 cryst.   s(17) = (     0          0          1      )
                  (     1          0          0      )
                  (     0          1          0      )

 cart.    s(17) = (  0.0000000  1.0000000  0.0000000 )
                  (  0.0000000  0.0000000  1.0000000 )
                  (  1.0000000  0.0000000  0.0000000 )


      isym = 18     120 deg rotation - cart. axis [-1,1,1]       

 cryst.   s(18) = (     0          0         -1      )
                  (    -1          0          0      )
                  (     0          1          0      )

 cart.    s(18) = (  0.0000000 -1.0000000  0.0000000 )
                  (  0.0000000  0.0000000  1.0000000 )
                  ( -1.0000000  0.0000000  0.0000000 )


      isym = 19     120 deg rotation - cart. axis [1,1,-1]       

 cryst.   s(19) = (     0          0         -1      )
                  (     1          0          0      )
                  (     0         -1          0      )

 cart.    s(19) = (  0.0000000  1.0000000  0.0000000 )
                  (  0.0000000  0.0000000 -1.0000000 )
                  ( -1.0000000  0.0000000  0.0000000 )


      isym = 20     120 deg rotation - cart. axis [1,-1,1]       

 cryst.   s(20) = (     0          0          1      )
                  (    -1          0          0      )
                  (     0         -1          0      )

 cart.    s(20) = (  0.0000000 -1.0000000  0.0000000 )
                  (  0.0000000  0.0000000 -1.0000000 )
                  (  1.0000000  0.0000000  0.0000000 )


      isym = 21     120 deg rotation - cart. axis [1,1,1]        

 cryst.   s(21) = (     0          1          0      )
                  (     0          0          1      )
                  (     1          0          0      )

 cart.    s(21) = (  0.0000000  0.0000000  1.0000000 )
                  (  1.0000000  0.0000000  0.0000000 )
                  (  0.0000000  1.0000000  0.0000000 )


      isym = 22     120 deg rotation - cart. axis [-1,1,-1]      

 cryst.   s(22) = (     0         -1          0      )
                  (     0          0         -1      )
                  (     1          0          0      )

 cart.    s(22) = (  0.0000000  0.0000000  1.0000000 )
                  ( -1.0000000  0.0000000  0.0000000 )
                  (  0.0000000 -1.0000000  0.0000000 )


      isym = 23     120 deg rotation - cart. axis [1,-1,-1]      

 cryst.   s(23) = (     0         -1          0      )
                  (     0          0          1      )
                  (    -1          0          0      )

 cart.    s(23) = (  0.0000000  0.0000000 -1.0000000 )
                  ( -1.0000000  0.0000000  0.0000000 )
                  (  0.0000000  1.0000000  0.0000000 )


      isym = 24     120 deg rotation - cart. axis [-1,-1,1]      

 cryst.   s(24) = (     0          1          0      )
                  (     0          0         -1      )
                  (    -1          0          0      )

 cart.    s(24) = (  0.0000000  0.0000000 -1.0000000 )
                  (  1.0000000  0.0000000  0.0000000 )
                  (  0.0000000 -1.0000000  0.0000000 )


      isym = 25     inversion                                    

 cryst.   s(25) = (    -1          0          0      )
                  (     0         -1          0      )
                  (     0          0         -1      )

 cart.    s(25) = ( -1.0000000  0.0000000  0.0000000 )
                  (  0.0000000 -1.0000000  0.0000000 )
                  (  0.0000000  0.0000000 -1.0000000 )


      isym = 26     inv. 180 deg rotation - cart. axis [0,0,1]   

 cryst.   s(26) = (     1          0          0      )
                  (     0          1          0      )
                  (     0          0         -1      )

 cart.    s(26) = (  1.0000000  0.0000000  0.0000000 )
                  (  0.0000000  1.0000000  0.0000000 )
                  (  0.0000000  0.0000000 -1.0000000 )


      isym = 27     inv. 180 deg rotation - cart. axis [0,1,0]   

 cryst.   s(27) = (     1          0          0      )
                  (     0         -1          0      )
                  (     0          0          1      )

 cart.    s(27) = (  1.0000000  0.0000000  0.0000000 )
                  (  0.0000000 -1.0000000  0.0000000 )
                  (  0.0000000  0.0000000  1.0000000 )


      isym = 28     inv. 180 deg rotation - cart. axis [1,0,0]   

 cryst.   s(28) = (    -1          0          0      )
                  (     0          1          0      )
                  (     0          0          1      )

 cart.    s(28) = ( -1.0000000  0.0000000  0.0000000 )
                  (  0.0000000  1.0000000  0.0000000 )
                  (  0.0000000  0.0000000  1.0000000 )


      isym = 29     inv. 180 deg rotation - cart. axis [1,1,0]   

 cryst.   s(29) = (     0         -1          0      )
                  (    -1          0          0      )
                  (     0          0          1      )

 cart.    s(29) = (  0.0000000 -1.0000000  0.0000000 )
                  ( -1.0000000  0.0000000  0.0000000 )
                  (  0.0000000  0.0000000  1.0000000 )


      isym = 30     inv. 180 deg rotation - cart. axis [1,-1,0]  

 cryst.   s(30) = (     0          1          0      )
                  (     1          0          0      )
                  (     0          0          1      )

 cart.    s(30) = (  0.0000000  1.0000000  0.0000000 )
                  (  1.0000000  0.0000000  0.0000000 )
                  (  0.0000000  0.0000000  1.0000000 )


      isym = 31     inv.  90 deg rotation - cart. axis [0,0,-1]  

 cryst.   s(31) = (     0          1          0      )
                  (    -1          0          0      )
                  (     0          0         -1      )

 cart.    s(31) = (  0.0000000 -1.0000000  0.0000000 )
                  (  1.0000000  0.0000000  0.0000000 )
                  (  0.0000000  0.0000000 -1.0000000 )


      isym = 32     inv.  90 deg rotation - cart. axis [0,0,1]   

 cryst.   s(32) = (     0         -1          0      )
                  (     1          0          0      )
                  (     0          0         -1      )

 cart.    s(32) = (  0.0000000  1.0000000  0.0000000 )
                  ( -1.0000000  0.0000000  0.0000000 )
                  (  0.0000000  0.0000000 -1.0000000 )


      isym = 33     inv. 180 deg rotation - cart. axis [1,0,1]   

 cryst.   s(33) = (     0          0         -1      )
                  (     0          1          0      )
                  (    -1          0          0      )

 cart.    s(33) = (  0.0000000  0.0000000 -1.0000000 )
                  (  0.0000000  1.0000000  0.0000000 )
                  ( -1.0000000  0.0000000  0.0000000 )


      isym = 34     inv. 180 deg rotation - cart. axis [-1,0,1]  

 cryst.   s(34) = (     0          0          1      )
                  (     0          1          0      )
                  (     1          0          0      )

 cart.    s(34) = (  0.0000000  0.0000000  1.0000000 )
                  (  0.0000000  1.0000000  0.0000000 )
                  (  1.0000000  0.0000000  0.0000000 )


      isym = 35     inv.  90 deg rotation - cart. axis [0,1,0]   

 cryst.   s(35) = (     0          0          1      )
                  (     0         -1          0      )
                  (    -1          0          0      )

 cart.    s(35) = (  0.0000000  0.0000000 -1.0000000 )
                  (  0.0000000 -1.0000000  0.0000000 )
                  (  1.0000000  0.0000000  0.0000000 )


      isym = 36     inv.  90 deg rotation - cart. axis [0,-1,0]  

 cryst.   s(36) = (     0          0         -1      )
                  (     0         -1          0      )
                  (     1          0          0      )

 cart.    s(36) = (  0.0000000  0.0000000  1.0000000 )
                  (  0.0000000 -1.0000000  0.0000000 )
                  ( -1.0000000  0.0000000  0.0000000 )


      isym = 37     inv. 180 deg rotation - cart. axis [0,1,1]   

 cryst.   s(37) = (     1          0          0      )
                  (     0          0         -1      )
                  (     0         -1          0      )

 cart.    s(37) = (  1.0000000  0.0000000  0.0000000 )
                  (  0.0000000  0.0000000 -1.0000000 )
                  (  0.0000000 -1.0000000  0.0000000 )


      isym = 38     inv. 180 deg rotation - cart. axis [0,1,-1]  

 cryst.   s(38) = (     1          0          0      )
                  (     0          0          1      )
                  (     0          1          0      )

 cart.    s(38) = (  1.0000000  0.0000000  0.0000000 )
                  (  0.0000000  0.0000000  1.0000000 )
                  (  0.0000000  1.0000000  0.0000000 )


      isym = 39     inv.  90 deg rotation - cart. axis [-1,0,0]  

 cryst.   s(39) = (    -1          0          0      )
                  (     0          0          1      )
                  (     0         -1          0      )

 cart.    s(39) = ( -1.0000000  0.0000000  0.0000000 )
                  (  0.0000000  0.0000000 -1.0000000 )
                  (  0.0000000  1.0000000  0.0000000 )


      isym = 40     inv.  90 deg rotation - cart. axis [1,0,0]   

 cryst.   s(40) = (    -1          0          0      )
                  (     0          0         -1      )
                  (     0          1          0      )

 cart.    s(40) = ( -1.0000000  0.0000000  0.0000000 )
                  (  0.0000000  0.0000000  1.0000000 )
                  (  0.0000000 -1.0000000  0.0000000 )


      isym = 41     inv. 120 deg rotation - cart. axis [-1,-1,-1]

 cryst.   s(41) = (     0          0         -1      )
                  (    -1          0          0      )
                  (     0         -1          0      )

 cart.    s(41) = (  0.0000000 -1.0000000  0.0000000 )
                  (  0.0000000  0.0000000 -1.0000000 )
                  ( -1.0000000  0.0000000  0.0000000 )


      isym = 42     inv. 120 deg rotation - cart. axis [-1,1,1]  

 cryst.   s(42) = (     0          0          1      )
                  (     1          0          0      )
                  (     0         -1          0      )

 cart.    s(42) = (  0.0000000  1.0000000  0.0000000 )
                  (  0.0000000  0.0000000 -1.0000000 )
                  (  1.0000000  0.0000000  0.0000000 )


      isym = 43     inv. 120 deg rotation - cart. axis [1,1,-1]  

 cryst.   s(43) = (     0          0          1      )
                  (    -1          0          0      )
                  (     0          1          0      )

 cart.    s(43) = (  0.0000000 -1.0000000  0.0000000 )
                  (  0.0000000  0.0000000  1.0000000 )
                  (  1.0000000  0.0000000  0.0000000 )


      isym = 44     inv. 120 deg rotation - cart. axis [1,-1,1]  

 cryst.   s(44) = (     0          0         -1      )
                  (     1          0          0      )
                  (     0          1          0      )

 cart.    s(44) = (  0.0000000  1.0000000  0.0000000 )
                  (  0.0000000  0.0000000  1.0000000 )
                  ( -1.0000000  0.0000000  0.0000000 )


      isym = 45     inv. 120 deg rotation - cart. axis [1,1,1]   

 cryst.   s(45) = (     0         -1          0      )
                  (     0          0         -1      )
                  (    -1          0          0      )

 cart.    s(45) = (  0.0000000  0.0000000 -1.0000000 )
                  ( -1.0000000  0.0000000  0.0000000 )
                  (  0.0000000 -1.0000000  0.0000000 )


      isym = 46     inv. 120 deg rotation - cart. axis [-1,1,-1] 

 cryst.   s(46) = (     0          1          0      )
                  (     0          0          1      )
                  (    -1          0          0      )

 cart.    s(46) = (  0.0000000  0.0000000 -1.0000000 )
                  (  1.0000000  0.0000000  0.0000000 )
                  (  0.0000000  1.0000000  0.0000000 )


      isym = 47     inv. 120 deg rotation - cart. axis [1,-1,-1] 

 cryst.   s(47) = (     0          1          0      )
                  (     0          0         -1      )
                  (     1          0          0      )

 cart.    s(47) = (  0.0000000  0.0000000  1.0000000 )
                  (  1.0000000  0.0000000  0.0000000 )
                  (  0.0000000 -1.0000000  0.0000000 )


      isym = 48     inv. 120 deg rotation - cart. axis [-1,-1,1] 

 cryst.   s(48) = (     0         -1          0      )
                  (     0          0          1      )
                  (     1          0          0      )

 cart.    s(48) = (  0.0000000  0.0000000  1.0000000 )
                  ( -1.0000000  0.0000000  0.0000000 )
                  (  0.0000000  1.0000000  0.0000000 )


   Cartesian axes

     site n.     atom                  positions (alat units)
         1           Mg  tau(   1) = (   0.2500000   0.7500000   0.2500000  )
         2           Mg  tau(   2) = (   0.7500000   0.7500000   0.2500000  )
         3           Mg  tau(   3) = (   0.2500000   0.2500000   0.7500000  )
         4           Mg  tau(   4) = (   0.7500000   0.2500000   0.7500000  )
         5           Mg  tau(   5) = (   0.7500000   0.7500000   0.7500000  )
         6           Mg  tau(   6) = (   0.2500000   0.7500000   0.7500000  )
         7           Mg  tau(   7) = (   0.7500000   0.2500000   0.2500000  )
         8           Mg  tau(   8) = (   0.2500000   0.2500000   0.2500000  )
         9           H   tau(   9) = (   0.0000000   0.0000000   0.7469588  )
        10           H   tau(  10) = (   0.0000000   0.7530412   0.5000000  )
        11           H   tau(  11) = (   0.7530412   0.0000000   0.5000000  )
        12           H   tau(  12) = (   0.0000000   0.0000000   0.2530412  )
        13           H   tau(  13) = (   0.0000000   0.7469588   0.0000000  )
        14           H   tau(  14) = (   0.2469588   0.0000000   0.5000000  )
        15           H   tau(  15) = (   0.0000000   0.5000000   0.2469588  )
        16           H   tau(  16) = (   0.0000000   0.2530412   0.0000000  )
        17           H   tau(  17) = (   0.7530412   0.5000000   0.0000000  )
        18           H   tau(  18) = (   0.0000000   0.5000000   0.7530412  )
        19           H   tau(  19) = (   0.0000000   0.2469588   0.5000000  )
        20           H   tau(  20) = (   0.2469588   0.5000000   0.0000000  )
        21           H   tau(  21) = (   0.5000000   0.0000000   0.2469588  )
        22           H   tau(  22) = (   0.5000000   0.7530412   0.0000000  )
        23           H   tau(  23) = (   0.2530412   0.0000000   0.0000000  )
        24           H   tau(  24) = (   0.5000000   0.0000000   0.7530412  )
        25           H   tau(  25) = (   0.5000000   0.7469588   0.5000000  )
        26           H   tau(  26) = (   0.7469588   0.0000000   0.0000000  )
        27           H   tau(  27) = (   0.5000000   0.5000000   0.7469588  )
        28           H   tau(  28) = (   0.5000000   0.2530412   0.5000000  )
        29           H   tau(  29) = (   0.2530412   0.5000000   0.5000000  )
        30           H   tau(  30) = (   0.5000000   0.5000000   0.2530412  )
        31           H   tau(  31) = (   0.5000000   0.2469588   0.0000000  )
        32           H   tau(  32) = (   0.7469588   0.5000000   0.5000000  )
        33           Ru  tau(  33) = (   0.0000000   0.0000000   0.0000000  )
        34           Ru  tau(  34) = (   0.0000000   0.5000000   0.5000000  )
        35           Ru  tau(  35) = (   0.5000000   0.0000000   0.5000000  )
        36           Ru  tau(  36) = (   0.5000000   0.5000000   0.0000000  )

   Crystallographic axes

     site n.     atom                  positions (cryst. coord.)
         1           Mg  tau(   1) = (  0.2500000  0.7500000  0.2500000  )
         2           Mg  tau(   2) = (  0.7500000  0.7500000  0.2500000  )
         3           Mg  tau(   3) = (  0.2500000  0.2500000  0.7500000  )
         4           Mg  tau(   4) = (  0.7500000  0.2500000  0.7500000  )
         5           Mg  tau(   5) = (  0.7500000  0.7500000  0.7500000  )
         6           Mg  tau(   6) = (  0.2500000  0.7500000  0.7500000  )
         7           Mg  tau(   7) = (  0.7500000  0.2500000  0.2500000  )
         8           Mg  tau(   8) = (  0.2500000  0.2500000  0.2500000  )
         9           H   tau(   9) = (  0.0000000  0.0000000  0.7469588  )
        10           H   tau(  10) = (  0.0000000  0.7530412  0.5000000  )
        11           H   tau(  11) = (  0.7530412  0.0000000  0.5000000  )
        12           H   tau(  12) = (  0.0000000  0.0000000  0.2530412  )
        13           H   tau(  13) = (  0.0000000  0.7469588  0.0000000  )
        14           H   tau(  14) = (  0.2469588  0.0000000  0.5000000  )
        15           H   tau(  15) = (  0.0000000  0.5000000  0.2469588  )
        16           H   tau(  16) = (  0.0000000  0.2530412  0.0000000  )
        17           H   tau(  17) = (  0.7530412  0.5000000  0.0000000  )
        18           H   tau(  18) = (  0.0000000  0.5000000  0.7530412  )
        19           H   tau(  19) = (  0.0000000  0.2469588  0.5000000  )
        20           H   tau(  20) = (  0.2469588  0.5000000  0.0000000  )
        21           H   tau(  21) = (  0.5000000  0.0000000  0.2469588  )
        22           H   tau(  22) = (  0.5000000  0.7530412  0.0000000  )
        23           H   tau(  23) = (  0.2530412  0.0000000  0.0000000  )
        24           H   tau(  24) = (  0.5000000  0.0000000  0.7530412  )
        25           H   tau(  25) = (  0.5000000  0.7469588  0.5000000  )
        26           H   tau(  26) = (  0.7469588  0.0000000  0.0000000  )
        27           H   tau(  27) = (  0.5000000  0.5000000  0.7469588  )
        28           H   tau(  28) = (  0.5000000  0.2530412  0.5000000  )
        29           H   tau(  29) = (  0.2530412  0.5000000  0.5000000  )
        30           H   tau(  30) = (  0.5000000  0.5000000  0.2530412  )
        31           H   tau(  31) = (  0.5000000  0.2469588  0.0000000  )
        32           H   tau(  32) = (  0.7469588  0.5000000  0.5000000  )
        33           Ru  tau(  33) = (  0.0000000  0.0000000  0.0000000  )
        34           Ru  tau(  34) = (  0.0000000  0.5000000  0.5000000  )
        35           Ru  tau(  35) = (  0.5000000  0.0000000  0.5000000  )
        36           Ru  tau(  36) = (  0.5000000  0.5000000  0.0000000  )

     number of k points=    56  Gaussian smearing, width (Ry)=  0.0200
                       cart. coord. in units 2pi/alat
        k(    1) = (   0.0000000   0.0000000   0.0000000), wk =   0.0015026
        k(    2) = (   0.0000000   0.0000000   0.0909091), wk =   0.0090158
        k(    3) = (   0.0000000   0.0000000   0.1818182), wk =   0.0090158
        k(    4) = (   0.0000000   0.0000000   0.2727273), wk =   0.0090158
        k(    5) = (   0.0000000   0.0000000   0.3636364), wk =   0.0090158
        k(    6) = (   0.0000000   0.0000000   0.4545455), wk =   0.0090158
        k(    7) = (   0.0000000   0.0909091   0.0909091), wk =   0.0180316
        k(    8) = (   0.0000000   0.0909091   0.1818182), wk =   0.0360631
        k(    9) = (   0.0000000   0.0909091   0.2727273), wk =   0.0360631
        k(   10) = (   0.0000000   0.0909091   0.3636364), wk =   0.0360631
        k(   11) = (   0.0000000   0.0909091   0.4545455), wk =   0.0360631
        k(   12) = (   0.0000000   0.1818182   0.1818182), wk =   0.0180316
        k(   13) = (   0.0000000   0.1818182   0.2727273), wk =   0.0360631
        k(   14) = (   0.0000000   0.1818182   0.3636364), wk =   0.0360631
        k(   15) = (   0.0000000   0.1818182   0.4545455), wk =   0.0360631
        k(   16) = (   0.0000000   0.2727273   0.2727273), wk =   0.0180316
        k(   17) = (   0.0000000   0.2727273   0.3636364), wk =   0.0360631
        k(   18) = (   0.0000000   0.2727273   0.4545455), wk =   0.0360631
        k(   19) = (   0.0000000   0.3636364   0.3636364), wk =   0.0180316
        k(   20) = (   0.0000000   0.3636364   0.4545455), wk =   0.0360631
        k(   21) = (   0.0000000   0.4545455   0.4545455), wk =   0.0180316
        k(   22) = (   0.0909091   0.0909091   0.0909091), wk =   0.0120210
        k(   23) = (   0.0909091   0.0909091   0.1818182), wk =   0.0360631
        k(   24) = (   0.0909091   0.0909091   0.2727273), wk =   0.0360631
        k(   25) = (   0.0909091   0.0909091   0.3636364), wk =   0.0360631
        k(   26) = (   0.0909091   0.0909091   0.4545455), wk =   0.0360631
        k(   27) = (   0.0909091   0.1818182   0.1818182), wk =   0.0360631
        k(   28) = (   0.0909091   0.1818182   0.2727273), wk =   0.0721262
        k(   29) = (   0.0909091   0.1818182   0.3636364), wk =   0.0721262
        k(   30) = (   0.0909091   0.1818182   0.4545455), wk =   0.0721262
        k(   31) = (   0.0909091   0.2727273   0.2727273), wk =   0.0360631
        k(   32) = (   0.0909091   0.2727273   0.3636364), wk =   0.0721262
        k(   33) = (   0.0909091   0.2727273   0.4545455), wk =   0.0721262
        k(   34) = (   0.0909091   0.3636364   0.3636364), wk =   0.0360631
        k(   35) = (   0.0909091   0.3636364   0.4545455), wk =   0.0721262
        k(   36) = (   0.0909091   0.4545455   0.4545455), wk =   0.0360631
        k(   37) = (   0.1818182   0.1818182   0.1818182), wk =   0.0120210
        k(   38) = (   0.1818182   0.1818182   0.2727273), wk =   0.0360631
        k(   39) = (   0.1818182   0.1818182   0.3636364), wk =   0.0360631
        k(   40) = (   0.1818182   0.1818182   0.4545455), wk =   0.0360631
        k(   41) = (   0.1818182   0.2727273   0.2727273), wk =   0.0360631
        k(   42) = (   0.1818182   0.2727273   0.3636364), wk =   0.0721262
        k(   43) = (   0.1818182   0.2727273   0.4545455), wk =   0.0721262
        k(   44) = (   0.1818182   0.3636364   0.3636364), wk =   0.0360631
        k(   45) = (   0.1818182   0.3636364   0.4545455), wk =   0.0721262
        k(   46) = (   0.1818182   0.4545455   0.4545455), wk =   0.0360631
        k(   47) = (   0.2727273   0.2727273   0.2727273), wk =   0.0120210
        k(   48) = (   0.2727273   0.2727273   0.3636364), wk =   0.0360631
        k(   49) = (   0.2727273   0.2727273   0.4545455), wk =   0.0360631
        k(   50) = (   0.2727273   0.3636364   0.3636364), wk =   0.0360631
        k(   51) = (   0.2727273   0.3636364   0.4545455), wk =   0.0721262
        k(   52) = (   0.2727273   0.4545455   0.4545455), wk =   0.0360631
        k(   53) = (   0.3636364   0.3636364   0.3636364), wk =   0.0120210
        k(   54) = (   0.3636364   0.3636364   0.4545455), wk =   0.0360631
        k(   55) = (   0.3636364   0.4545455   0.4545455), wk =   0.0360631
        k(   56) = (   0.4545455   0.4545455   0.4545455), wk =   0.0120210

                       cryst. coord.
        k(    1) = (   0.0000000   0.0000000   0.0000000), wk =   0.0015026
        k(    2) = (   0.0000000   0.0000000   0.0909091), wk =   0.0090158
        k(    3) = (   0.0000000   0.0000000   0.1818182), wk =   0.0090158
        k(    4) = (   0.0000000   0.0000000   0.2727273), wk =   0.0090158
        k(    5) = (   0.0000000   0.0000000   0.3636364), wk =   0.0090158
        k(    6) = (   0.0000000   0.0000000   0.4545455), wk =   0.0090158
        k(    7) = (   0.0000000   0.0909091   0.0909091), wk =   0.0180316
        k(    8) = (   0.0000000   0.0909091   0.1818182), wk =   0.0360631
        k(    9) = (   0.0000000   0.0909091   0.2727273), wk =   0.0360631
        k(   10) = (   0.0000000   0.0909091   0.3636364), wk =   0.0360631
        k(   11) = (   0.0000000   0.0909091   0.4545455), wk =   0.0360631
        k(   12) = (   0.0000000   0.1818182   0.1818182), wk =   0.0180316
        k(   13) = (   0.0000000   0.1818182   0.2727273), wk =   0.0360631
        k(   14) = (   0.0000000   0.1818182   0.3636364), wk =   0.0360631
        k(   15) = (   0.0000000   0.1818182   0.4545455), wk =   0.0360631
        k(   16) = (   0.0000000   0.2727273   0.2727273), wk =   0.0180316
        k(   17) = (   0.0000000   0.2727273   0.3636364), wk =   0.0360631
        k(   18) = (   0.0000000   0.2727273   0.4545455), wk =   0.0360631
        k(   19) = (   0.0000000   0.3636364   0.3636364), wk =   0.0180316
        k(   20) = (   0.0000000   0.3636364   0.4545455), wk =   0.0360631
        k(   21) = (   0.0000000   0.4545455   0.4545455), wk =   0.0180316
        k(   22) = (   0.0909091   0.0909091   0.0909091), wk =   0.0120210
        k(   23) = (   0.0909091   0.0909091   0.1818182), wk =   0.0360631
        k(   24) = (   0.0909091   0.0909091   0.2727273), wk =   0.0360631
        k(   25) = (   0.0909091   0.0909091   0.3636364), wk =   0.0360631
        k(   26) = (   0.0909091   0.0909091   0.4545455), wk =   0.0360631
        k(   27) = (   0.0909091   0.1818182   0.1818182), wk =   0.0360631
        k(   28) = (   0.0909091   0.1818182   0.2727273), wk =   0.0721262
        k(   29) = (   0.0909091   0.1818182   0.3636364), wk =   0.0721262
        k(   30) = (   0.0909091   0.1818182   0.4545455), wk =   0.0721262
        k(   31) = (   0.0909091   0.2727273   0.2727273), wk =   0.0360631
        k(   32) = (   0.0909091   0.2727273   0.3636364), wk =   0.0721262
        k(   33) = (   0.0909091   0.2727273   0.4545455), wk =   0.0721262
        k(   34) = (   0.0909091   0.3636364   0.3636364), wk =   0.0360631
        k(   35) = (   0.0909091   0.3636364   0.4545455), wk =   0.0721262
        k(   36) = (   0.0909091   0.4545455   0.4545455), wk =   0.0360631
        k(   37) = (   0.1818182   0.1818182   0.1818182), wk =   0.0120210
        k(   38) = (   0.1818182   0.1818182   0.2727273), wk =   0.0360631
        k(   39) = (   0.1818182   0.1818182   0.3636364), wk =   0.0360631
        k(   40) = (   0.1818182   0.1818182   0.4545455), wk =   0.0360631
        k(   41) = (   0.1818182   0.2727273   0.2727273), wk =   0.0360631
        k(   42) = (   0.1818182   0.2727273   0.3636364), wk =   0.0721262
        k(   43) = (   0.1818182   0.2727273   0.4545455), wk =   0.0721262
        k(   44) = (   0.1818182   0.3636364   0.3636364), wk =   0.0360631
        k(   45) = (   0.1818182   0.3636364   0.4545455), wk =   0.0721262
        k(   46) = (   0.1818182   0.4545455   0.4545455), wk =   0.0360631
        k(   47) = (   0.2727273   0.2727273   0.2727273), wk =   0.0120210
        k(   48) = (   0.2727273   0.2727273   0.3636364), wk =   0.0360631
        k(   49) = (   0.2727273   0.2727273   0.4545455), wk =   0.0360631
        k(   50) = (   0.2727273   0.3636364   0.3636364), wk =   0.0360631
        k(   51) = (   0.2727273   0.3636364   0.4545455), wk =   0.0721262
        k(   52) = (   0.2727273   0.4545455   0.4545455), wk =   0.0360631
        k(   53) = (   0.3636364   0.3636364   0.3636364), wk =   0.0120210
        k(   54) = (   0.3636364   0.3636364   0.4545455), wk =   0.0360631
        k(   55) = (   0.3636364   0.4545455   0.4545455), wk =   0.0360631
        k(   56) = (   0.4545455   0.4545455   0.4545455), wk =   0.0120210

     Dense  grid:  1160031 G-vectors     FFT dimensions: ( 135, 135, 135)

     Smooth grid:   223135 G-vectors     FFT dimensions: (  75,  75,  75)

     Dynamical RAM for                 wfc:       0.82 MB

     Dynamical RAM for     wfc (w. buffer):      23.92 MB

     Dynamical RAM for           str. fact:       1.66 MB

     Dynamical RAM for           local pot:       0.00 MB

     Dynamical RAM for          nlocal pot:       2.45 MB

     Dynamical RAM for                qrad:       7.91 MB

     Dynamical RAM for          rho,v,vnew:       3.75 MB

     Dynamical RAM for               rhoin:       1.25 MB

     Dynamical RAM for            rho*nmix:       8.85 MB

     Dynamical RAM for           G-vectors:       2.13 MB

     Dynamical RAM for          h,s,v(r/c):       0.70 MB

     Dynamical RAM for          <psi|beta>:       0.17 MB

     Dynamical RAM for                 psi:       1.65 MB

     Dynamical RAM for                hpsi:       1.65 MB

     Dynamical RAM for                spsi:       1.65 MB

     Dynamical RAM for      wfcinit/wfcrot:       3.78 MB

     Dynamical RAM for           addusdens:      58.36 MB

     Dynamical RAM for          addusforce:      71.18 MB

     Dynamical RAM for         addusstress:      55.73 MB

     Estimated static dynamical RAM per process >      48.75 MB

     Estimated max dynamical RAM per process >     128.77 MB

     Estimated total dynamical RAM >       7.77 GB

     Initial potential from superposition of free atoms

     starting charge     103.9896, renormalised to     104.0000
     Starting wfcs are  128 randomized atomic wfcs
     Checking if some PAW data can be deallocated... 
       PAW data deallocated on   48 nodes for type:  2
       PAW data deallocated on   60 nodes for type:  3

     total cpu time spent up to now is        5.9 secs

     Self-consistent Calculation

     iteration #  1     ecut=    90.00 Ry     beta= 0.40
     Davidson diagonalization with overlap

---- Real-time Memory Report at c_bands before calling an iterative solver
           134 MiB given to the printing process from OS
             0 MiB allocation reported by mallinfo(arena+hblkhd)
        221485 MiB available memory on the node where the printing process lives
------------------
     ethr =  1.00E-02,  avg # of iterations =  2.3

     total cpu time spent up to now is       12.7 secs

     total energy              =   -1998.57618586 Ry
     estimated scf accuracy    <       1.37449809 Ry

     iteration #  2     ecut=    90.00 Ry     beta= 0.40
     Davidson diagonalization with overlap

---- Real-time Memory Report at c_bands before calling an iterative solver
           179 MiB given to the printing process from OS
             0 MiB allocation reported by mallinfo(arena+hblkhd)
        217367 MiB available memory on the node where the printing process lives
------------------
     ethr =  1.32E-03,  avg # of iterations =  2.0

     total cpu time spent up to now is       18.8 secs

     total energy              =   -1998.50707822 Ry
     estimated scf accuracy    <       0.33533856 Ry

     iteration #  3     ecut=    90.00 Ry     beta= 0.40
     Davidson diagonalization with overlap

---- Real-time Memory Report at c_bands before calling an iterative solver
           181 MiB given to the printing process from OS
             0 MiB allocation reported by mallinfo(arena+hblkhd)
        222527 MiB available memory on the node where the printing process lives
------------------
     ethr =  3.22E-04,  avg # of iterations =  3.5

     total cpu time spent up to now is       26.2 secs

     total energy              =   -1998.56778332 Ry
     estimated scf accuracy    <       0.00440726 Ry

     iteration #  4     ecut=    90.00 Ry     beta= 0.40
     Davidson diagonalization with overlap

---- Real-time Memory Report at c_bands before calling an iterative solver
           181 MiB given to the printing process from OS
             0 MiB allocation reported by mallinfo(arena+hblkhd)
        220172 MiB available memory on the node where the printing process lives
------------------
     c_bands:  2 eigenvalues not converged
     c_bands:  1 eigenvalues not converged
     c_bands:  3 eigenvalues not converged
     c_bands:  1 eigenvalues not converged
     c_bands:  1 eigenvalues not converged
     c_bands:  1 eigenvalues not converged
     c_bands:  1 eigenvalues not converged
     c_bands:  1 eigenvalues not converged
     c_bands:  5 eigenvalues not converged
     c_bands:  3 eigenvalues not converged
     c_bands:  2 eigenvalues not converged
     c_bands:  1 eigenvalues not converged
     c_bands:  1 eigenvalues not converged
     ethr =  4.24E-06,  avg # of iterations = 17.1

     total cpu time spent up to now is       44.0 secs

     total energy              =   -1998.57464654 Ry
     estimated scf accuracy    <       0.00256789 Ry

     iteration #  5     ecut=    90.00 Ry     beta= 0.40
     Davidson diagonalization with overlap

---- Real-time Memory Report at c_bands before calling an iterative solver
           182 MiB given to the printing process from OS
             0 MiB allocation reported by mallinfo(arena+hblkhd)
        219553 MiB available memory on the node where the printing process lives
------------------
     c_bands:  2 eigenvalues not converged
     c_bands:  1 eigenvalues not converged
     c_bands:  1 eigenvalues not converged
     c_bands:  1 eigenvalues not converged
     ethr =  2.47E-06,  avg # of iterations =  9.8

     total cpu time spent up to now is       53.8 secs

     total energy              =   -1998.57487652 Ry
     estimated scf accuracy    <       0.00072346 Ry

     iteration #  6     ecut=    90.00 Ry     beta= 0.40
     Davidson diagonalization with overlap

---- Real-time Memory Report at c_bands before calling an iterative solver
           183 MiB given to the printing process from OS
             0 MiB allocation reported by mallinfo(arena+hblkhd)
        216227 MiB available memory on the node where the printing process lives
------------------
     c_bands:  1 eigenvalues not converged
     ethr =  6.96E-07,  avg # of iterations =  7.8

     total cpu time spent up to now is       63.9 secs

     total energy              =   -1998.57499525 Ry
     estimated scf accuracy    <       0.00065648 Ry

     iteration #  7     ecut=    90.00 Ry     beta= 0.40
     Davidson diagonalization with overlap

---- Real-time Memory Report at c_bands before calling an iterative solver
           183 MiB given to the printing process from OS
             0 MiB allocation reported by mallinfo(arena+hblkhd)
        216226 MiB available memory on the node where the printing process lives
------------------
     c_bands:  3 eigenvalues not converged
     ethr =  6.31E-07,  avg # of iterations =  2.5

     total cpu time spent up to now is       70.3 secs

     total energy              =   -1998.57503686 Ry
     estimated scf accuracy    <       0.00003609 Ry

     iteration #  8     ecut=    90.00 Ry     beta= 0.40
     Davidson diagonalization with overlap

---- Real-time Memory Report at c_bands before calling an iterative solver
           184 MiB given to the printing process from OS
             0 MiB allocation reported by mallinfo(arena+hblkhd)
        219399 MiB available memory on the node where the printing process lives
------------------
     c_bands:  2 eigenvalues not converged
     ethr =  3.47E-08,  avg # of iterations =  9.9

     total cpu time spent up to now is       83.4 secs

     total energy              =   -1998.57508220 Ry
     estimated scf accuracy    <       0.00001065 Ry

     iteration #  9     ecut=    90.00 Ry     beta= 0.40
     Davidson diagonalization with overlap

---- Real-time Memory Report at c_bands before calling an iterative solver
           184 MiB given to the printing process from OS
             0 MiB allocation reported by mallinfo(arena+hblkhd)
        217349 MiB available memory on the node where the printing process lives
------------------
     ethr =  1.02E-08,  avg # of iterations =  4.3

     total cpu time spent up to now is       90.9 secs

     total energy              =   -1998.57508236 Ry
     estimated scf accuracy    <       0.00000312 Ry

     iteration # 10     ecut=    90.00 Ry     beta= 0.40
     Davidson diagonalization with overlap

---- Real-time Memory Report at c_bands before calling an iterative solver
           185 MiB given to the printing process from OS
             0 MiB allocation reported by mallinfo(arena+hblkhd)
        219339 MiB available memory on the node where the printing process lives
------------------
     ethr =  3.00E-09,  avg # of iterations =  6.0

     total cpu time spent up to now is      100.4 secs

     total energy              =   -1998.57508351 Ry
     estimated scf accuracy    <       0.00000027 Ry

     iteration # 11     ecut=    90.00 Ry     beta= 0.40
     Davidson diagonalization with overlap

---- Real-time Memory Report at c_bands before calling an iterative solver
           185 MiB given to the printing process from OS
             0 MiB allocation reported by mallinfo(arena+hblkhd)
        220319 MiB available memory on the node where the printing process lives
------------------
     ethr =  2.62E-10,  avg # of iterations =  9.7

     total cpu time spent up to now is      114.5 secs

     total energy              =   -1998.57508384 Ry
     estimated scf accuracy    <       0.00000002 Ry

     iteration # 12     ecut=    90.00 Ry     beta= 0.40
     Davidson diagonalization with overlap

---- Real-time Memory Report at c_bands before calling an iterative solver
           185 MiB given to the printing process from OS
             0 MiB allocation reported by mallinfo(arena+hblkhd)
        216110 MiB available memory on the node where the printing process lives
------------------
     ethr =  2.01E-11,  avg # of iterations =  9.9

     total cpu time spent up to now is      128.9 secs

     total energy              =   -1998.57508387 Ry
     estimated scf accuracy    <       0.00000001 Ry

     iteration # 13     ecut=    90.00 Ry     beta= 0.40
     Davidson diagonalization with overlap

---- Real-time Memory Report at c_bands before calling an iterative solver
           185 MiB given to the printing process from OS
             0 MiB allocation reported by mallinfo(arena+hblkhd)
        219380 MiB available memory on the node where the printing process lives
------------------
     ethr =  1.04E-11,  avg # of iterations =  2.2

     total cpu time spent up to now is      135.0 secs

     End of self-consistent calculation

          k = 0.0000 0.0000 0.0000 ( 28017 PWs)   bands (ev):

   -65.0573 -65.0572 -65.0572 -65.0570 -35.1697 -35.1697 -35.1697 -35.1687
   -35.1687 -35.1687 -35.1686 -35.1686 -35.1686 -35.1680 -35.1680 -35.1680
    -2.7095  -0.6223  -0.6223  -0.6223   1.3510   1.3510   1.3510   1.6063
     1.6063   1.6063   1.8615   1.8615   2.1997   2.1997   2.1997   3.1008
     3.1008   3.1008   3.1008   3.1008   3.1008   3.8346   3.8346   3.8346
     4.4567   4.4567   4.4567   4.5117   4.5117   4.5117   5.4551   5.4551
     5.4551   5.4552   5.4552   5.4552   8.4623   8.4624   8.4624  10.7790
    10.7790  10.7790  12.2784  12.2907  12.2907  12.5019

     occupation numbers 
     1.0000   1.0000   1.0000   1.0000   1.0000   1.0000   1.0000   1.0000
     1.0000   1.0000   1.0000   1.0000   1.0000   1.0000   1.0000   1.0000
     1.0000   1.0000   1.0000   1.0000   1.0000   1.0000   1.0000   1.0000
     1.0000   1.0000   1.0000   1.0000   1.0000   1.0000   1.0000   1.0000
     1.0000   1.0000   1.0000   1.0000   1.0000   1.0000   1.0000   1.0000
     1.0000   1.0000   1.0000   1.0000   1.0000   1.0000   1.0000   1.0000
     1.0000   1.0000   1.0000   1.0000   0.0000   0.0000   0.0000   0.0000
     0.0000   0.0000   0.0000   0.0000   0.0000   0.0000

          k = 0.0000 0.0000 0.0909 ( 27941 PWs)   bands (ev):

   -65.0573 -65.0572 -65.0572 -65.0570 -35.1697 -35.1697 -35.1697 -35.1687
   -35.1687 -35.1687 -35.1686 -35.1686 -35.1686 -35.1680 -35.1680 -35.1680
    -2.6810  -0.6839  -0.5957  -0.5957   1.1234   1.3698   1.3698   1.5373
     1.5373   1.8256   1.8679   1.9382   2.1380   2.1380   2.1924   2.9812
     2.9812   3.1130   3.1130   3.2094   3.2094   3.8469   3.9582   3.9582
     4.2724   4.2724   4.4544   4.4964   4.6923   4.6923   5.4449   5.4449
     5.4548   5.4548   5.4552   5.4552   8.4617   8.5245   8.5245  10.7861
    10.7940  10.7940  11.9400  12.1303  12.2598  12.2601

     occupation numbers 
     1.0000   1.0000   1.0000   1.0000   1.0000   1.0000   1.0000   1.0000
     1.0000   1.0000   1.0000   1.0000   1.0000   1.0000   1.0000   1.0000
     1.0000   1.0000   1.0000   1.0000   1.0000   1.0000   1.0000   1.0000
     1.0000   1.0000   1.0000   1.0000   1.0000   1.0000   1.0000   1.0000
     1.0000   1.0000   1.0000   1.0000   1.0000   1.0000   1.0000   1.0000
     1.0000   1.0000   1.0000   1.0000   1.0000   1.0000   1.0000   1.0000
     1.0000   1.0000   1.0000   1.0000   0.0000   0.0000   0.0000   0.0000
     0.0000   0.0000   0.0000   0.0000   0.0000   0.0000

          k = 0.0000 0.0000 0.1818 ( 27905 PWs)   bands (ev):

   -65.0573 -65.0572 -65.0572 -65.0570 -35.1696 -35.1696 -35.1696 -35.1687
   -35.1687 -35.1687 -35.1686 -35.1685 -35.1685 -35.1681 -35.1680 -35.1680
    -2.5958  -0.8634  -0.5168  -0.5168   0.9404   1.3317   1.3317   1.4261
     1.4261   1.7246   1.8869   2.0545   2.0546   2.1712   2.4228   2.7411
     2.7411   3.1497   3.1497   3.4305   3.4305   3.8832   4.0681   4.0681
     4.2083   4.2083   4.4402   4.4520   4.8847   4.8847   5.4123   5.4123
     5.4520   5.4520   5.4552   5.4553   8.4697   8.7105   8.7106  10.8081
    10.8439  10.8439  11.2905  11.6544  12.2218  12.7016

     occupation numbers 
     1.0000   1.0000   1.0000   1.0000   1.0000   1.0000   1.0000   1.0000
     1.0000   1.0000   1.0000   1.0000   1.0000   1.0000   1.0000   1.0000
     1.0000   1.0000   1.0000   1.0000   1.0000   1.0000   1.0000   1.0000
     1.0000   1.0000   1.0000   1.0000   1.0000   1.0000   1.0000   1.0000
     1.0000   1.0000   1.0000   1.0000   1.0000   1.0000   1.0000   1.0000
     1.0000   1.0000   1.0000   1.0000   1.0000   1.0000   1.0000   1.0000
     1.0000   1.0000   1.0000   1.0000   0.0000   0.0000   0.0000   0.0000
     0.0000   0.0000   0.0000   0.0000   0.0000   0.0000

          k = 0.0000 0.0000 0.2727 ( 27914 PWs)   bands (ev):

   -65.0573 -65.0572 -65.0572 -65.0570 -35.1695 -35.1695 -35.1694 -35.1688
   -35.1688 -35.1687 -35.1686 -35.1685 -35.1685 -35.1683 -35.1681 -35.1681
    -2.4556  -1.1310  -0.3895  -0.3895   0.8907   1.0435   1.0435   1.5194
     1.5194   1.5758   1.9170   2.0118   2.0118   2.1382   2.4817   2.4817
     2.9242   3.2109   3.2109   3.6463   3.6463   3.8747   3.8747   3.9413
     4.3835   4.3943   4.4788   4.4788   5.0551   5.0551   5.3529   5.3529
     5.4424   5.4424   5.4553   5.4554   8.5140   9.0153   9.0153  10.4999
    10.8465  10.9403  10.9403  11.4226  12.3758  12.3759

     occupation numbers 
     1.0000   1.0000   1.0000   1.0000   1.0000   1.0000   1.0000   1.0000
     1.0000   1.0000   1.0000   1.0000   1.0000   1.0000   1.0000   1.0000
     1.0000   1.0000   1.0000   1.0000   1.0000   1.0000   1.0000   1.0000
     1.0000   1.0000   1.0000   1.0000   1.0000   1.0000   1.0000   1.0000
     1.0000   1.0000   1.0000   1.0000   1.0000   1.0000   1.0000   1.0000
     1.0000   1.0000   1.0000   1.0000   1.0000   1.0000   1.0000   1.0000
     1.0000   1.0000   1.0000   1.0000   0.0000   0.0000   0.0000   0.0000
     0.0000   0.0000   0.0000   0.0000   0.0000   0.0000

          k = 0.0000 0.0000 0.3636 ( 27910 PWs)   bands (ev):

   -65.0572 -65.0572 -65.0572 -65.0570 -35.1694 -35.1694 -35.1692 -35.1689
   -35.1689 -35.1687 -35.1686 -35.1685 -35.1684 -35.1684 -35.1682 -35.1682
    -2.2631  -1.4377  -0.2248  -0.2248   0.7460   0.7460   0.9434   1.4012
     1.6486   1.6486   1.9561   1.9938   1.9938   2.0964   2.2337   2.2337
     3.2967   3.2967   3.3951   3.6978   3.6978   3.8058   3.8058   4.0175
     4.2886   4.2977   4.7322   4.7322   5.1955   5.1955   5.2601   5.2601
     5.4194   5.4194   5.4554   5.4555   8.6342   9.4138   9.4138   9.8122
    10.9044  11.0981  11.0981  11.2383  11.9946  11.9951

     occupation numbers 
     1.0000   1.0000   1.0000   1.0000   1.0000   1.0000   1.0000   1.0000
     1.0000   1.0000   1.0000   1.0000   1.0000   1.0000   1.0000   1.0000
     1.0000   1.0000   1.0000   1.0000   1.0000   1.0000   1.0000   1.0000
     1.0000   1.0000   1.0000   1.0000   1.0000   1.0000   1.0000   1.0000
     1.0000   1.0000   1.0000   1.0000   1.0000   1.0000   1.0000   1.0000
     1.0000   1.0000   1.0000   1.0000   1.0000   1.0000   1.0000   1.0000
     1.0000   1.0000   1.0000   1.0000   0.0000   0.0000   0.0000   0.0000
     0.0000   0.0000   0.0000   0.0000   0.0000   0.0000

          k = 0.0000 0.0000 0.4545 ( 27878 PWs)   bands (ev):

   -65.0572 -65.0572 -65.0572 -65.0570 -35.1692 -35.1692 -35.1691 -35.1691
   -35.1690 -35.1688 -35.1687 -35.1685 -35.1684 -35.1684 -35.1682 -35.1682
    -2.0229  -1.7432  -0.0658  -0.0658   0.5146   0.5147   1.0632   1.2232
     1.8125   1.8125   1.9871   1.9872   2.0014   2.0087   2.0087   2.0495
     3.4070   3.4070   3.5412   3.5412   3.7948   3.8890   3.8890   4.0945
     4.1068   4.2027   4.9512   4.9512   5.1275   5.1275   5.3020   5.3020
     5.3750   5.3750   5.4555   5.4556   8.8735   9.2638   9.7983   9.7983
    10.9854  11.0948  11.2244  11.3282  11.3283  11.6302

     occupation numbers 
     1.0000   1.0000   1.0000   1.0000   1.0000   1.0000   1.0000   1.0000
     1.0000   1.0000   1.0000   1.0000   1.0000   1.0000   1.0000   1.0000
     1.0000   1.0000   1.0000   1.0000   1.0000   1.0000   1.0000   1.0000
     1.0000   1.0000   1.0000   1.0000   1.0000   1.0000   1.0000   1.0000
     1.0000   1.0000   1.0000   1.0000   1.0000   1.0000   1.0000   1.0000
     1.0000   1.0000   1.0000   1.0000   1.0000   1.0000   1.0000   1.0000
     1.0000   1.0000   1.0000   1.0000   0.0000   0.0000   0.0000   0.0000
     0.0000   0.0000   0.0000   0.0000   0.0000   0.0000

          k = 0.0000 0.0909 0.0909 ( 27923 PWs)   bands (ev):

   -65.0573 -65.0572 -65.0572 -65.0570 -35.1697 -35.1696 -35.1696 -35.1687
   -35.1687 -35.1686 -35.1686 -35.1686 -35.1686 -35.1681 -35.1680 -35.1680
    -2.6525  -0.6568  -0.6568  -0.5691   1.1184   1.1184   1.3886   1.4685
     1.8128   1.8517   1.8762   1.8762   2.0707   2.1410   2.1410   2.9372
     2.9943   2.9943   3.2275   3.2275   3.2836   3.9695   3.9695   4.0476
     4.1340   4.1610   4.5314   4.5432   4.7377   4.7504   5.4378   5.4448
     5.4449   5.4523   5.4547   5.4547   8.5228   8.5229   8.5818  10.8011
    10.8011  10.8111  11.7992  12.0433  12.0930  12.2968

     occupation numbers 
     1.0000   1.0000   1.0000   1.0000   1.0000   1.0000   1.0000   1.0000
     1.0000   1.0000   1.0000   1.0000   1.0000   1.0000   1.0000   1.0000
     1.0000   1.0000   1.0000   1.0000   1.0000   1.0000   1.0000   1.0000
     1.0000   1.0000   1.0000   1.0000   1.0000   1.0000   1.0000   1.0000
     1.0000   1.0000   1.0000   1.0000   1.0000   1.0000   1.0000   1.0000
     1.0000   1.0000   1.0000   1.0000   1.0000   1.0000   1.0000   1.0000
     1.0000   1.0000   1.0000   1.0000   0.0000   0.0000   0.0000   0.0000
     0.0000   0.0000   0.0000   0.0000   0.0000   0.0000

          k = 0.0000 0.0909 0.1818 ( 27899 PWs)   bands (ev):

   -65.0573 -65.0572 -65.0572 -65.0570 -35.1696 -35.1696 -35.1696 -35.1688
   -35.1687 -35.1686 -35.1686 -35.1686 -35.1685 -35.1682 -35.1681 -35.1680
    -2.5674  -0.8356  -0.5763  -0.4903   0.9349   1.0788   1.2630   1.4448
     1.7079   1.7228   1.8603   1.9700   2.0898   2.1052   2.3654   2.7554
     2.7775   3.0334   3.2890   3.4573   3.4918   3.9336   3.9738   4.0026
     4.2177   4.2526   4.5164   4.5747   4.8855   4.8980   5.4075   5.4133
     5.4432   5.4510   5.4516   5.4544   8.5279   8.7057   8.7531  10.8226
    10.8506  10.8671  11.2960  11.5821  12.0060  12.2729

     occupation numbers 
     1.0000   1.0000   1.0000   1.0000   1.0000   1.0000   1.0000   1.0000
     1.0000   1.0000   1.0000   1.0000   1.0000   1.0000   1.0000   1.0000
     1.0000   1.0000   1.0000   1.0000   1.0000   1.0000   1.0000   1.0000
     1.0000   1.0000   1.0000   1.0000   1.0000   1.0000   1.0000   1.0000
     1.0000   1.0000   1.0000   1.0000   1.0000   1.0000   1.0000   1.0000
     1.0000   1.0000   1.0000   1.0000   1.0000   1.0000   1.0000   1.0000
     1.0000   1.0000   1.0000   1.0000   0.0000   0.0000   0.0000   0.0000
     0.0000   0.0000   0.0000   0.0000   0.0000   0.0000

          k = 0.0000 0.0909 0.2727 ( 27904 PWs)   bands (ev):

   -65.0572 -65.0572 -65.0572 -65.0570 -35.1695 -35.1695 -35.1694 -35.1689
   -35.1688 -35.1686 -35.1686 -35.1685 -35.1685 -35.1683 -35.1681 -35.1681
    -2.4272  -1.1029  -0.4456  -0.3631   0.8870   0.9366   0.9721   1.5378
     1.5773   1.5966   1.8862   1.8987   2.0734   2.1093   2.4971   2.5844
     2.7726   3.0984   3.4250   3.6802   3.7067   3.7409   3.7832   4.0557
     4.4598   4.4860   4.4965   4.5386   5.0533   5.0564   5.3496   5.3553
     5.4356   5.4415   5.4511   5.4540   8.5673   9.0044   9.0332  10.5175
    10.8601  10.9466  10.9747  11.3866  12.2102  12.3629

     occupation numbers 
     1.0000   1.0000   1.0000   1.0000   1.0000   1.0000   1.0000   1.0000
     1.0000   1.0000   1.0000   1.0000   1.0000   1.0000   1.0000   1.0000
     1.0000   1.0000   1.0000   1.0000   1.0000   1.0000   1.0000   1.0000
     1.0000   1.0000   1.0000   1.0000   1.0000   1.0000   1.0000   1.0000
     1.0000   1.0000   1.0000   1.0000   1.0000   1.0000   1.0000   1.0000
     1.0000   1.0000   1.0000   1.0000   1.0000   1.0000   1.0000   1.0000
     1.0000   1.0000   1.0000   1.0000   0.0000   0.0000   0.0000   0.0000
     0.0000   0.0000   0.0000   0.0000   0.0000   0.0000

          k = 0.0000 0.0909 0.3636 ( 27899 PWs)   bands (ev):

   -65.0572 -65.0572 -65.0572 -65.0570 -35.1694 -35.1694 -35.1692 -35.1690
   -35.1689 -35.1686 -35.1686 -35.1685 -35.1685 -35.1684 -35.1682 -35.1681
    -2.2348  -1.4096  -0.2727  -0.1989   0.6701   0.6978   0.9421   1.4039
     1.6067   1.6667   1.8356   1.9208   2.0408   2.1354   2.2499   2.4087
     3.0626   3.1890   3.5644   3.6044   3.6791   3.8459   3.8634   4.1256
     4.3827   4.4400   4.7372   4.7391   5.1934   5.1959   5.2586   5.2638
     5.4152   5.4178   5.4516   5.4535   8.6811   9.3914   9.3976   9.8369
    10.9157  11.1038  11.1493  11.2243  11.6293  11.9927

     occupation numbers 
     1.0000   1.0000   1.0000   1.0000   1.0000   1.0000   1.0000   1.0000
     1.0000   1.0000   1.0000   1.0000   1.0000   1.0000   1.0000   1.0000
     1.0000   1.0000   1.0000   1.0000   1.0000   1.0000   1.0000   1.0000
     1.0000   1.0000   1.0000   1.0000   1.0000   1.0000   1.0000   1.0000
     1.0000   1.0000   1.0000   1.0000   1.0000   1.0000   1.0000   1.0000
     1.0000   1.0000   1.0000   1.0000   1.0000   1.0000   1.0000   1.0000
     1.0000   1.0000   1.0000   1.0000   0.0000   0.0000   0.0000   0.0000
     0.0000   0.0000   0.0000   0.0000   0.0000   0.0000

          k = 0.0000 0.0909 0.4545 ( 27879 PWs)   bands (ev):

   -65.0572 -65.0572 -65.0572 -65.0570 -35.1693 -35.1692 -35.1691 -35.1691
   -35.1690 -35.1688 -35.1686 -35.1685 -35.1684 -35.1683 -35.1683 -35.1682
    -1.9948  -1.7151  -0.0895  -0.0474   0.4388   0.4685   1.0640   1.2255
     1.6772   1.7615   1.8301   1.9605   2.0018   2.0256   2.1864   2.2742
     3.2473   3.3045   3.4032   3.4437   3.9350   3.9411   3.9928   4.2076
     4.2598   4.2958   4.9539   4.9557   5.1281   5.1318   5.2992   5.3026
     5.3727   5.3736   5.4522   5.4529   8.9128   9.2955   9.7457   9.7521
    10.9925  11.0941  11.1681  11.2146  11.3331  11.4099

     occupation numbers 
     1.0000   1.0000   1.0000   1.0000   1.0000   1.0000   1.0000   1.0000
     1.0000   1.0000   1.0000   1.0000   1.0000   1.0000   1.0000   1.0000
     1.0000   1.0000   1.0000   1.0000   1.0000   1.0000   1.0000   1.0000
     1.0000   1.0000   1.0000   1.0000   1.0000   1.0000   1.0000   1.0000
     1.0000   1.0000   1.0000   1.0000   1.0000   1.0000   1.0000   1.0000
     1.0000   1.0000   1.0000   1.0000   1.0000   1.0000   1.0000   1.0000
     1.0000   1.0000   1.0000   1.0000   0.0000   0.0000   0.0000   0.0000
     0.0000   0.0000   0.0000   0.0000   0.0000   0.0000

          k = 0.0000 0.1818 0.1818 ( 27915 PWs)   bands (ev):

   -65.0573 -65.0572 -65.0572 -65.0570 -35.1695 -35.1695 -35.1695 -35.1688
   -35.1687 -35.1686 -35.1686 -35.1685 -35.1685 -35.1683 -35.1681 -35.1680
    -2.4825  -0.7528  -0.7528  -0.4117   0.9066   0.9066   1.0592   1.5005
     1.6942   1.8072   1.8385   1.8660   1.8660   2.3402   2.3402   2.7746
     2.7983   2.7983   3.5485   3.5485   3.6724   3.7194   3.7922   4.2451
     4.2451   4.3722   4.5891   4.7615   4.9070   4.9576   5.3863   5.4149
     5.4150   5.4435   5.4504   5.4504   8.7015   8.7015   8.8806  10.8710
    10.8710  10.9417  11.3205  11.3251  11.4444  12.5503

     occupation numbers 
     1.0000   1.0000   1.0000   1.0000   1.0000   1.0000   1.0000   1.0000
     1.0000   1.0000   1.0000   1.0000   1.0000   1.0000   1.0000   1.0000
     1.0000   1.0000   1.0000   1.0000   1.0000   1.0000   1.0000   1.0000
     1.0000   1.0000   1.0000   1.0000   1.0000   1.0000   1.0000   1.0000
     1.0000   1.0000   1.0000   1.0000   1.0000   1.0000   1.0000   1.0000
     1.0000   1.0000   1.0000   1.0000   1.0000   1.0000   1.0000   1.0000
     1.0000   1.0000   1.0000   1.0000   0.0000   0.0000   0.0000   0.0000
     0.0000   0.0000   0.0000   0.0000   0.0000   0.0000

          k = 0.0000 0.1818 0.2727 ( 27936 PWs)   bands (ev):

   -65.0572 -65.0572 -65.0572 -65.0570 -35.1695 -35.1694 -35.1694 -35.1689
   -35.1688 -35.1686 -35.1686 -35.1685 -35.1685 -35.1684 -35.1682 -35.1680
    -2.3426  -1.0192  -0.6168  -0.2850   0.7675   0.8188   0.8686   1.5794
     1.5927   1.6588   1.7410   1.7975   1.8898   2.3561   2.5431   2.6482
     2.7017   2.8692   3.5201   3.5976   3.7301   3.7922   3.8856   4.2891
     4.5072   4.5473   4.5913   4.7870   5.0440   5.0690   5.3367   5.3613
     5.4128   5.4388   5.4400   5.4485   8.7261   8.9830   9.0905  10.5739
    10.9056  10.9654  11.0800  11.3112  11.3926  11.9987

     occupation numbers 
     1.0000   1.0000   1.0000   1.0000   1.0000   1.0000   1.0000   1.0000
     1.0000   1.0000   1.0000   1.0000   1.0000   1.0000   1.0000   1.0000
     1.0000   1.0000   1.0000   1.0000   1.0000   1.0000   1.0000   1.0000
     1.0000   1.0000   1.0000   1.0000   1.0000   1.0000   1.0000   1.0000
     1.0000   1.0000   1.0000   1.0000   1.0000   1.0000   1.0000   1.0000
     1.0000   1.0000   1.0000   1.0000   1.0000   1.0000   1.0000   1.0000
     1.0000   1.0000   1.0000   1.0000   0.0000   0.0000   0.0000   0.0000
     0.0000   0.0000   0.0000   0.0000   0.0000   0.0000

          k = 0.0000 0.1818 0.3636 ( 27927 PWs)   bands (ev):

   -65.0572 -65.0572 -65.0572 -65.0570 -35.1694 -35.1693 -35.1692 -35.1691
   -35.1689 -35.1687 -35.1685 -35.1685 -35.1685 -35.1684 -35.1682 -35.1681
    -2.1504  -1.3259  -0.4317  -0.1233   0.4613   0.6426   0.9329   1.4118
     1.5607   1.6651   1.7206   1.8144   1.8813   2.2986   2.3925   2.6071
     2.8840   2.9676   3.3480   3.4109   3.9747   4.0013   4.0384   4.3466
     4.5470   4.7052   4.7516   4.7575   5.1903   5.1945   5.2526   5.2736
     5.3998   5.4132   5.4399   5.4462   8.8207   9.3392   9.3658   9.9128
    10.9550  11.1202  11.1969  11.2923  11.4313  11.9771

     occupation numbers 
     1.0000   1.0000   1.0000   1.0000   1.0000   1.0000   1.0000   1.0000
     1.0000   1.0000   1.0000   1.0000   1.0000   1.0000   1.0000   1.0000
     1.0000   1.0000   1.0000   1.0000   1.0000   1.0000   1.0000   1.0000
     1.0000   1.0000   1.0000   1.0000   1.0000   1.0000   1.0000   1.0000
     1.0000   1.0000   1.0000   1.0000   1.0000   1.0000   1.0000   1.0000
     1.0000   1.0000   1.0000   1.0000   1.0000   1.0000   1.0000   1.0000
     1.0000   1.0000   1.0000   1.0000   0.0000   0.0000   0.0000   0.0000
     0.0000   0.0000   0.0000   0.0000   0.0000   0.0000

          k = 0.0000 0.1818 0.4545 ( 27901 PWs)   bands (ev):

   -65.0572 -65.0572 -65.0572 -65.0570 -35.1693 -35.1692 -35.1692 -35.1691
   -35.1690 -35.1689 -35.1685 -35.1685 -35.1684 -35.1683 -35.1683 -35.1682
    -1.9107  -1.6313  -0.2088  -0.0248   0.2703   0.4186   1.0631   1.2309
     1.5571   1.6010   1.8380   1.8618   1.8826   2.0764   2.4465   2.5187
     3.0529   3.0920   3.1976   3.2408   4.0799   4.1025   4.2971   4.4133
     4.4830   4.5427   4.9614   4.9670   5.1287   5.1431   5.2924   5.3016
     5.3663   5.3665   5.4414   5.4437   9.0305   9.3913   9.6306   9.6453
    11.0199  11.0650  11.1004  11.1753  11.3455  11.6389

     occupation numbers 
     1.0000   1.0000   1.0000   1.0000   1.0000   1.0000   1.0000   1.0000
     1.0000   1.0000   1.0000   1.0000   1.0000   1.0000   1.0000   1.0000
     1.0000   1.0000   1.0000   1.0000   1.0000   1.0000   1.0000   1.0000
     1.0000   1.0000   1.0000   1.0000   1.0000   1.0000   1.0000   1.0000
     1.0000   1.0000   1.0000   1.0000   1.0000   1.0000   1.0000   1.0000
     1.0000   1.0000   1.0000   1.0000   1.0000   1.0000   1.0000   1.0000
     1.0000   1.0000   1.0000   1.0000   0.0000   0.0000   0.0000   0.0000
     0.0000   0.0000   0.0000   0.0000   0.0000   0.0000

          k = 0.0000 0.2727 0.2727 ( 27923 PWs)   bands (ev):

   -65.0572 -65.0572 -65.0572 -65.0570 -35.1694 -35.1693 -35.1693 -35.1690
   -35.1687 -35.1687 -35.1686 -35.1685 -35.1684 -35.1684 -35.1682 -35.1681
    -2.2030  -0.8814  -0.8814  -0.1599   0.4783   0.8097   0.8097   1.5588
     1.6299   1.6744   1.6744   1.6807   1.6837   2.6112   2.6112   2.6192
     2.6192   2.7374   3.3242   3.3939   3.9983   3.9983   4.1242   4.5407
     4.5407   4.6348   4.6800   5.0142   5.0144   5.1146   5.3033   5.3665
     5.3665   5.4279   5.4346   5.4347   8.9818   8.9818   9.1965  10.6394
    10.7175  10.9956  10.9956  11.2385  11.2601  12.1706

     occupation numbers 
     1.0000   1.0000   1.0000   1.0000   1.0000   1.0000   1.0000   1.0000
     1.0000   1.0000   1.0000   1.0000   1.0000   1.0000   1.0000   1.0000
     1.0000   1.0000   1.0000   1.0000   1.0000   1.0000   1.0000   1.0000
     1.0000   1.0000   1.0000   1.0000   1.0000   1.0000   1.0000   1.0000
     1.0000   1.0000   1.0000   1.0000   1.0000   1.0000   1.0000   1.0000
     1.0000   1.0000   1.0000   1.0000   1.0000   1.0000   1.0000   1.0000
     1.0000   1.0000   1.0000   1.0000   0.0000   0.0000   0.0000   0.0000
     0.0000   0.0000   0.0000   0.0000   0.0000   0.0000

          k = 0.0000 0.2727 0.3636 ( 27894 PWs)   bands (ev):

   -65.0572 -65.0572 -65.0572 -65.0570 -35.1694 -35.1693 -35.1692 -35.1691
   -35.1688 -35.1688 -35.1686 -35.1685 -35.1684 -35.1683 -35.1683 -35.1681
    -2.0114  -1.1878  -0.6919  -0.0191   0.1909   0.6758   0.8966   1.4241
     1.5302   1.5532   1.6429   1.6718   1.8098   2.3790   2.6179   2.7203
     2.7245   2.7999   3.1698   3.1966   4.1996   4.2794   4.3045   4.5835
     4.6994   4.7737   4.7828   4.9414   5.1842   5.1970   5.2355   5.2853
     5.3640   5.4064   5.4217   5.4297   9.0447   9.2965   9.3557  10.0392
    10.8438  11.0356  11.1443  11.1804  11.2307  11.4728

     occupation numbers 
     1.0000   1.0000   1.0000   1.0000   1.0000   1.0000   1.0000   1.0000
     1.0000   1.0000   1.0000   1.0000   1.0000   1.0000   1.0000   1.0000
     1.0000   1.0000   1.0000   1.0000   1.0000   1.0000   1.0000   1.0000
     1.0000   1.0000   1.0000   1.0000   1.0000   1.0000   1.0000   1.0000
     1.0000   1.0000   1.0000   1.0000   1.0000   1.0000   1.0000   1.0000
     1.0000   1.0000   1.0000   1.0000   1.0000   1.0000   1.0000   1.0000
     1.0000   1.0000   1.0000   1.0000   0.0000   0.0000   0.0000   0.0000
     0.0000   0.0000   0.0000   0.0000   0.0000   0.0000

          k = 0.0000 0.2727 0.4545 ( 27908 PWs)   bands (ev):

   -65.0572 -65.0572 -65.0572 -65.0570 -35.1693 -35.1692 -35.1691 -35.1691
   -35.1690 -35.1689 -35.1685 -35.1684 -35.1684 -35.1684 -35.1682 -35.1681
    -1.7721  -1.4931  -0.4559  -0.1851   0.2564   0.4735   1.0467   1.2323
     1.4838   1.5014   1.6498   1.6618   1.9695   2.1604   2.6457   2.6835
     2.8575   2.9333   3.0160   3.0467   4.3227   4.3630   4.5680   4.6306
     4.6742   4.7973   4.9713   4.9789   5.1257   5.1568   5.2859   5.2897
     5.3435   5.3578   5.4216   5.4250   9.2201   9.5278   9.5431   9.5476
    10.9348  11.0767  11.0817  11.1302  11.3589  11.6306

     occupation numbers 
     1.0000   1.0000   1.0000   1.0000   1.0000   1.0000   1.0000   1.0000
     1.0000   1.0000   1.0000   1.0000   1.0000   1.0000   1.0000   1.0000
     1.0000   1.0000   1.0000   1.0000   1.0000   1.0000   1.0000   1.0000
     1.0000   1.0000   1.0000   1.0000   1.0000   1.0000   1.0000   1.0000
     1.0000   1.0000   1.0000   1.0000   1.0000   1.0000   1.0000   1.0000
     1.0000   1.0000   1.0000   1.0000   1.0000   1.0000   1.0000   1.0000
     1.0000   1.0000   1.0000   1.0000   0.0000   0.0000   0.0000   0.0000
     0.0000   0.0000   0.0000   0.0000   0.0000   0.0000

          k = 0.0000 0.3636 0.3636 ( 27898 PWs)   bands (ev):

   -65.0572 -65.0572 -65.0572 -65.0570 -35.1693 -35.1692 -35.1692 -35.1691
   -35.1690 -35.1688 -35.1687 -35.1684 -35.1684 -35.1684 -35.1683 -35.1681
    -1.8203  -0.9980  -0.9980  -0.1825   0.2065   0.7958   0.7958   1.4172
     1.4496   1.4806   1.5055   1.5055   1.9334   2.4902   2.4902   2.7645
     2.7718   2.7718   2.9887   3.0441   4.4885   4.4885   4.5711   4.7967
     4.7997   4.7998   4.8286   5.0628   5.1843   5.1936   5.2296   5.2922
     5.2923   5.3991   5.3991   5.4035   9.3144   9.3144   9.4006  10.1042
    10.3651  11.0118  11.0122  11.1700  11.1700  11.1827

     occupation numbers 
     1.0000   1.0000   1.0000   1.0000   1.0000   1.0000   1.0000   1.0000
     1.0000   1.0000   1.0000   1.0000   1.0000   1.0000   1.0000   1.0000
     1.0000   1.0000   1.0000   1.0000   1.0000   1.0000   1.0000   1.0000
     1.0000   1.0000   1.0000   1.0000   1.0000   1.0000   1.0000   1.0000
     1.0000   1.0000   1.0000   1.0000   1.0000   1.0000   1.0000   1.0000
     1.0000   1.0000   1.0000   1.0000   1.0000   1.0000   1.0000   1.0000
     1.0000   1.0000   1.0000   1.0000   0.0000   0.0000   0.0000   0.0000
     0.0000   0.0000   0.0000   0.0000   0.0000   0.0000

          k = 0.0000 0.3636 0.4545 ( 27920 PWs)   bands (ev):

   -65.0572 -65.0572 -65.0572 -65.0570 -35.1693 -35.1693 -35.1692 -35.1691
   -35.1690 -35.1688 -35.1686 -35.1685 -35.1683 -35.1683 -35.1682 -35.1681
    -1.5816  -1.3030  -0.7606  -0.4832   0.4031   0.6165   0.9761   1.1933
     1.4353   1.4379   1.4618   1.4828   2.0898   2.2766   2.6307   2.7692
     2.7726   2.7981   2.8728   2.9538   4.6202   4.6699   4.7698   4.8230
     4.8300   4.9764   4.9783   4.9814   5.1103   5.1655   5.2481   5.2846
     5.2885   5.3509   5.3937   5.3938   9.4456   9.4930   9.5081   9.7286
    10.5181  10.7549  10.7680  10.8899  11.1883  11.1912

     occupation numbers 
     1.0000   1.0000   1.0000   1.0000   1.0000   1.0000   1.0000   1.0000
     1.0000   1.0000   1.0000   1.0000   1.0000   1.0000   1.0000   1.0000
     1.0000   1.0000   1.0000   1.0000   1.0000   1.0000   1.0000   1.0000
     1.0000   1.0000   1.0000   1.0000   1.0000   1.0000   1.0000   1.0000
     1.0000   1.0000   1.0000   1.0000   1.0000   1.0000   1.0000   1.0000
     1.0000   1.0000   1.0000   1.0000   1.0000   1.0000   1.0000   1.0000
     1.0000   1.0000   1.0000   1.0000   0.0000   0.0000   0.0000   0.0000
     0.0000   0.0000   0.0000   0.0000   0.0000   0.0000

          k = 0.0000 0.4545 0.4545 ( 27928 PWs)   bands (ev):

   -65.0572 -65.0572 -65.0572 -65.0570 -35.1693 -35.1693 -35.1692 -35.1692
   -35.1689 -35.1688 -35.1687 -35.1686 -35.1683 -35.1683 -35.1682 -35.1682
    -1.3436  -1.0655  -1.0655  -0.7877   0.6021   0.8130   0.8130   1.0310
     1.3925   1.4010   1.4023   1.4023   2.2419   2.4235   2.4235   2.5985
     2.8160   2.8418   2.8418   2.8943   4.8958   4.8958   4.9290   4.9464
     4.9661   4.9712   4.9712   5.0467   5.0653   5.1614   5.1615   5.1700
     5.3109   5.3516   5.3516   5.3665   9.5430   9.5851   9.5851   9.7481
    10.3390  10.5261  10.5261  10.6472  11.2697  11.3333

     occupation numbers 
     1.0000   1.0000   1.0000   1.0000   1.0000   1.0000   1.0000   1.0000
     1.0000   1.0000   1.0000   1.0000   1.0000   1.0000   1.0000   1.0000
     1.0000   1.0000   1.0000   1.0000   1.0000   1.0000   1.0000   1.0000
     1.0000   1.0000   1.0000   1.0000   1.0000   1.0000   1.0000   1.0000
     1.0000   1.0000   1.0000   1.0000   1.0000   1.0000   1.0000   1.0000
     1.0000   1.0000   1.0000   1.0000   1.0000   1.0000   1.0000   1.0000
     1.0000   1.0000   1.0000   1.0000   0.0000   0.0000   0.0000   0.0000
     0.0000   0.0000   0.0000   0.0000   0.0000   0.0000

          k = 0.0909 0.0909 0.0909 ( 27900 PWs)   bands (ev):

   -65.0573 -65.0572 -65.0572 -65.0570 -35.1696 -35.1696 -35.1696 -35.1687
   -35.1687 -35.1686 -35.1686 -35.1685 -35.1685 -35.1681 -35.1680 -35.1680
    -2.6240  -0.6297  -0.6297  -0.6297   1.1089   1.1089   1.1089   1.8182
     1.8182   1.8313   1.8313   1.8313   2.0660   2.0660   2.0660   2.9701
     2.9701   2.9701   3.2929   3.2929   3.2929   3.9156   4.0590   4.0590
     4.0590   4.3384   4.3384   4.7329   4.7329   4.7785   5.4378   5.4379
     5.4379   5.4519   5.4519   5.4520   8.5792   8.5792   8.5792  10.8179
    10.8179  10.8179  11.6389  12.0541  12.0541  12.3700

     occupation numbers 
     1.0000   1.0000   1.0000   1.0000   1.0000   1.0000   1.0000   1.0000
     1.0000   1.0000   1.0000   1.0000   1.0000   1.0000   1.0000   1.0000
     1.0000   1.0000   1.0000   1.0000   1.0000   1.0000   1.0000   1.0000
     1.0000   1.0000   1.0000   1.0000   1.0000   1.0000   1.0000   1.0000
     1.0000   1.0000   1.0000   1.0000   1.0000   1.0000   1.0000   1.0000
     1.0000   1.0000   1.0000   1.0000   1.0000   1.0000   1.0000   1.0000
     1.0000   1.0000   1.0000   1.0000   0.0000   0.0000   0.0000   0.0000
     0.0000   0.0000   0.0000   0.0000   0.0000   0.0000

          k = 0.0909 0.0909 0.1818 ( 27902 PWs)   bands (ev):

   -65.0573 -65.0572 -65.0572 -65.0570 -35.1696 -35.1696 -35.1695 -35.1688
   -35.1687 -35.1686 -35.1686 -35.1685 -35.1685 -35.1682 -35.1680 -35.1680
    -2.5389  -0.8078  -0.5493  -0.5493   0.9270   1.0526   1.0526   1.6910
     1.6910   1.7227   1.8341   1.9910   1.9910   2.0520   2.2359   2.8236
     2.8236   3.0854   3.3215   3.5077   3.5077   3.6833   4.0929   4.1448
     4.2628   4.2628   4.4238   4.7182   4.8805   4.9156   5.4085   5.4085
     5.4366   5.4493   5.4504   5.4505   8.5814   8.7475   8.7475  10.8387
    10.8733  10.8733  11.2674  11.5150  12.0201  12.2257

     occupation numbers 
     1.0000   1.0000   1.0000   1.0000   1.0000   1.0000   1.0000   1.0000
     1.0000   1.0000   1.0000   1.0000   1.0000   1.0000   1.0000   1.0000
     1.0000   1.0000   1.0000   1.0000   1.0000   1.0000   1.0000   1.0000
     1.0000   1.0000   1.0000   1.0000   1.0000   1.0000   1.0000   1.0000
     1.0000   1.0000   1.0000   1.0000   1.0000   1.0000   1.0000   1.0000
     1.0000   1.0000   1.0000   1.0000   1.0000   1.0000   1.0000   1.0000
     1.0000   1.0000   1.0000   1.0000   0.0000   0.0000   0.0000   0.0000
     0.0000   0.0000   0.0000   0.0000   0.0000   0.0000

          k = 0.0909 0.0909 0.2727 ( 27923 PWs)   bands (ev):

   -65.0572 -65.0572 -65.0572 -65.0570 -35.1695 -35.1695 -35.1694 -35.1688
   -35.1688 -35.1686 -35.1686 -35.1685 -35.1685 -35.1684 -35.1681 -35.1681
    -2.3989  -1.0749  -0.4187  -0.4187   0.8820   0.8855   0.8855   1.5788
     1.5996   1.5997   1.8591   1.9528   1.9528   2.0293   2.5566   2.6451
     2.6451   3.3220   3.3707   3.4668   3.7321   3.7321   3.9634   4.1490
     4.4051   4.5043   4.5043   4.6790   5.0345   5.0762   5.3521   5.3521
     5.4298   5.4398   5.4500   5.4500   8.6163   9.0220   9.0220  10.5289
    10.8744  10.9798  10.9798  11.3264  12.2031  12.2036

     occupation numbers 
     1.0000   1.0000   1.0000   1.0000   1.0000   1.0000   1.0000   1.0000
     1.0000   1.0000   1.0000   1.0000   1.0000   1.0000   1.0000   1.0000
     1.0000   1.0000   1.0000   1.0000   1.0000   1.0000   1.0000   1.0000
     1.0000   1.0000   1.0000   1.0000   1.0000   1.0000   1.0000   1.0000
     1.0000   1.0000   1.0000   1.0000   1.0000   1.0000   1.0000   1.0000
     1.0000   1.0000   1.0000   1.0000   1.0000   1.0000   1.0000   1.0000
     1.0000   1.0000   1.0000   1.0000   0.0000   0.0000   0.0000   0.0000
     0.0000   0.0000   0.0000   0.0000   0.0000   0.0000

          k = 0.0909 0.0909 0.3636 ( 27925 PWs)   bands (ev):

   -65.0572 -65.0572 -65.0572 -65.0570 -35.1694 -35.1694 -35.1692 -35.1690
   -35.1689 -35.1686 -35.1686 -35.1685 -35.1684 -35.1684 -35.1682 -35.1681
    -2.2065  -1.3816  -0.2459  -0.2459   0.6312   0.6312   0.9399   1.4064
     1.6144   1.6144   1.8911   1.9108   1.9108   1.9994   2.4975   2.4976
     2.7698   3.2718   3.4422   3.6547   3.7995   3.8966   3.8966   4.2279
[...]
     atom    8 type  2   force =    -0.00000000   -0.00000000   -0.00000000
     atom    9 type  1   force =    -0.00000000   -0.00000000   -2.45700671
     atom   10 type  1   force =    -0.00000000    2.45700671    0.00000000
     atom   11 type  1   force =     2.45700671    0.00000000    0.00000000
     atom   12 type  1   force =    -0.00000000   -0.00000000    2.45700671
     atom   13 type  1   force =     0.00000000   -2.45700671   -0.00000000
     atom   14 type  1   force =    -2.45700671   -0.00000000    0.00000000
     atom   15 type  1   force =    -0.00000000    0.00000000   -2.45700671
     atom   16 type  1   force =    -0.00000000    2.45700671   -0.00000000
     atom   17 type  1   force =     2.45700671    0.00000000   -0.00000000
     atom   18 type  1   force =    -0.00000000    0.00000000    2.45700671
     atom   19 type  1   force =     0.00000000   -2.45700671    0.00000000
     atom   20 type  1   force =    -2.45700671   -0.00000000   -0.00000000
     atom   21 type  1   force =     0.00000000   -0.00000000   -2.45700671
     atom   22 type  1   force =    -0.00000000    2.45700671   -0.00000000
     atom   23 type  1   force =     2.45700671    0.00000000   -0.00000000
     atom   24 type  1   force =     0.00000000   -0.00000000    2.45700671
     atom   25 type  1   force =     0.00000000   -2.45700671   -0.00000000
     atom   26 type  1   force =    -2.45700671   -0.00000000   -0.00000000
     atom   27 type  1   force =    -0.00000000   -0.00000000   -2.45700671
     atom   28 type  1   force =    -0.00000000    2.45700671    0.00000000
     atom   29 type  1   force =     2.45700671    0.00000000    0.00000000
     atom   30 type  1   force =     0.00000000    0.00000000    2.45700671
     atom   31 type  1   force =     0.00000000   -2.45700671   -0.00000000
     atom   32 type  1   force =    -2.45700671   -0.00000000   -0.00000000
     atom   33 type  3   force =    -0.00000000   -0.00000000   -0.00000000
     atom   34 type  3   force =    -0.00000000    0.00000000    0.00000000
     atom   35 type  3   force =     0.00000000   -0.00000000    0.00000000
     atom   36 type  3   force =     0.00000000    0.00000000   -0.00000000
     The local contribution  to forces
     atom    1 type  2   force =     0.00000127   -0.00000127    0.00000127
     atom    2 type  2   force =    -0.00000127   -0.00000127    0.00000127
     atom    3 type  2   force =     0.00000127    0.00000127   -0.00000127
     atom    4 type  2   force =    -0.00000127    0.00000127   -0.00000127
     atom    5 type  2   force =    -0.00000127   -0.00000127   -0.00000127
     atom    6 type  2   force =     0.00000127   -0.00000127   -0.00000127
     atom    7 type  2   force =    -0.00000127    0.00000127    0.00000127
     atom    8 type  2   force =     0.00000127    0.00000127    0.00000127
     atom    9 type  1   force =     0.00000000    0.00000000    2.43089772
     atom   10 type  1   force =     0.00000000   -2.43091091   -0.00000000
     atom   11 type  1   force =    -2.43091091   -0.00000000   -0.00000000
     atom   12 type  1   force =     0.00000000    0.00000000   -2.43089772
     atom   13 type  1   force =     0.00000000    2.43089772    0.00000000
     atom   14 type  1   force =     2.43091091    0.00000000    0.00000000
     atom   15 type  1   force =     0.00000000    0.00000000    2.43091091
     atom   16 type  1   force =    -0.00000000   -2.43089772    0.00000000
     atom   17 type  1   force =    -2.43091091   -0.00000000    0.00000000
     atom   18 type  1   force =     0.00000000   -0.00000000   -2.43091091
     atom   19 type  1   force =    -0.00000000    2.43091091    0.00000000
     atom   20 type  1   force =     2.43091091    0.00000000   -0.00000000
     atom   21 type  1   force =     0.00000000    0.00000000    2.43091091
     atom   22 type  1   force =    -0.00000000   -2.43091091    0.00000000
     atom   23 type  1   force =    -2.43089772    0.00000000    0.00000000
     atom   24 type  1   force =    -0.00000000    0.00000000   -2.43091091
     atom   25 type  1   force =    -0.00000000    2.43091070    0.00000000
     atom   26 type  1   force =     2.43089772   -0.00000000    0.00000000
     atom   27 type  1   force =     0.00000000    0.00000000    2.43091070
     atom   28 type  1   force =     0.00000000   -2.43091070    0.00000000
     atom   29 type  1   force =    -2.43091070   -0.00000000    0.00000000
     atom   30 type  1   force =     0.00000000    0.00000000   -2.43091070
     atom   31 type  1   force =     0.00000000    2.43091091    0.00000000
     atom   32 type  1   force =     2.43091070    0.00000000    0.00000000
     atom   33 type  3   force =     0.00000000    0.00000000    0.00000000
     atom   34 type  3   force =     0.00000000    0.00000000    0.00000000
     atom   35 type  3   force =     0.00000000    0.00000000    0.00000000
     atom   36 type  3   force =     0.00000000    0.00000000    0.00000000
     The core correction contribution to forces
     atom    1 type  2   force =    -0.00000009    0.00000009   -0.00000009
     atom    2 type  2   force =     0.00000009    0.00000009   -0.00000009
     atom    3 type  2   force =    -0.00000009   -0.00000009    0.00000009
     atom    4 type  2   force =     0.00000009   -0.00000009    0.00000009
     atom    5 type  2   force =     0.00000009    0.00000009    0.00000009
     atom    6 type  2   force =    -0.00000009    0.00000009    0.00000009
     atom    7 type  2   force =     0.00000009   -0.00000009   -0.00000009
     atom    8 type  2   force =    -0.00000009   -0.00000009   -0.00000009
     atom    9 type  1   force =     0.00000000    0.00000000    0.00000000
     atom   10 type  1   force =     0.00000000    0.00000000    0.00000000
     atom   11 type  1   force =     0.00000000    0.00000000    0.00000000
     atom   12 type  1   force =     0.00000000    0.00000000    0.00000000
     atom   13 type  1   force =     0.00000000    0.00000000    0.00000000
     atom   14 type  1   force =     0.00000000    0.00000000    0.00000000
     atom   15 type  1   force =     0.00000000    0.00000000    0.00000000
     atom   16 type  1   force =     0.00000000    0.00000000    0.00000000
     atom   17 type  1   force =     0.00000000    0.00000000    0.00000000
     atom   18 type  1   force =     0.00000000    0.00000000    0.00000000
     atom   19 type  1   force =     0.00000000    0.00000000    0.00000000
     atom   20 type  1   force =     0.00000000    0.00000000    0.00000000
     atom   21 type  1   force =     0.00000000    0.00000000    0.00000000
     atom   22 type  1   force =     0.00000000    0.00000000    0.00000000
     atom   23 type  1   force =     0.00000000    0.00000000    0.00000000
     atom   24 type  1   force =     0.00000000    0.00000000    0.00000000
     atom   25 type  1   force =     0.00000000    0.00000000    0.00000000
     atom   26 type  1   force =     0.00000000    0.00000000    0.00000000
     atom   27 type  1   force =     0.00000000    0.00000000    0.00000000
     atom   28 type  1   force =     0.00000000    0.00000000    0.00000000
     atom   29 type  1   force =     0.00000000    0.00000000    0.00000000
     atom   30 type  1   force =     0.00000000    0.00000000    0.00000000
     atom   31 type  1   force =     0.00000000    0.00000000    0.00000000
     atom   32 type  1   force =     0.00000000    0.00000000    0.00000000
     atom   33 type  3   force =     0.00000000    0.00000000   -0.00000000
     atom   34 type  3   force =     0.00000000    0.00000000    0.00000000
     atom   35 type  3   force =     0.00000000    0.00000000    0.00000000
     atom   36 type  3   force =     0.00000000    0.00000000   -0.00000000
     The Hubbard contrib.    to forces
     atom    1 type  2   force =     0.00000000    0.00000000    0.00000000
     atom    2 type  2   force =     0.00000000    0.00000000    0.00000000
     atom    3 type  2   force =     0.00000000    0.00000000    0.00000000
     atom    4 type  2   force =     0.00000000    0.00000000    0.00000000
     atom    5 type  2   force =     0.00000000    0.00000000    0.00000000
     atom    6 type  2   force =     0.00000000    0.00000000    0.00000000
     atom    7 type  2   force =     0.00000000    0.00000000    0.00000000
     atom    8 type  2   force =     0.00000000    0.00000000    0.00000000
     atom    9 type  1   force =     0.00000000    0.00000000    0.00000000
     atom   10 type  1   force =     0.00000000    0.00000000    0.00000000
     atom   11 type  1   force =     0.00000000    0.00000000    0.00000000
     atom   12 type  1   force =     0.00000000    0.00000000    0.00000000
     atom   13 type  1   force =     0.00000000    0.00000000    0.00000000
     atom   14 type  1   force =     0.00000000    0.00000000    0.00000000
     atom   15 type  1   force =     0.00000000    0.00000000    0.00000000
     atom   16 type  1   force =     0.00000000    0.00000000    0.00000000
     atom   17 type  1   force =     0.00000000    0.00000000    0.00000000
     atom   18 type  1   force =     0.00000000    0.00000000    0.00000000
     atom   19 type  1   force =     0.00000000    0.00000000    0.00000000
     atom   20 type  1   force =     0.00000000    0.00000000    0.00000000
     atom   21 type  1   force =     0.00000000    0.00000000    0.00000000
     atom   22 type  1   force =     0.00000000    0.00000000    0.00000000
     atom   23 type  1   force =     0.00000000    0.00000000    0.00000000
     atom   24 type  1   force =     0.00000000    0.00000000    0.00000000
     atom   25 type  1   force =     0.00000000    0.00000000    0.00000000
     atom   26 type  1   force =     0.00000000    0.00000000    0.00000000
     atom   27 type  1   force =     0.00000000    0.00000000    0.00000000
     atom   28 type  1   force =     0.00000000    0.00000000    0.00000000
     atom   29 type  1   force =     0.00000000    0.00000000    0.00000000
     atom   30 type  1   force =     0.00000000    0.00000000    0.00000000
     atom   31 type  1   force =     0.00000000    0.00000000    0.00000000
     atom   32 type  1   force =     0.00000000    0.00000000    0.00000000
     atom   33 type  3   force =     0.00000000    0.00000000    0.00000000
     atom   34 type  3   force =     0.00000000    0.00000000    0.00000000
     atom   35 type  3   force =     0.00000000    0.00000000    0.00000000
     atom   36 type  3   force =     0.00000000    0.00000000    0.00000000
     The SCF correction term to forces
     atom    1 type  2   force =    -0.00000219    0.00000219   -0.00000219
     atom    2 type  2   force =     0.00000219    0.00000219   -0.00000219
     atom    3 type  2   force =    -0.00000219   -0.00000219    0.00000219
     atom    4 type  2   force =     0.00000219   -0.00000219    0.00000219
     atom    5 type  2   force =     0.00000219    0.00000219    0.00000219
     atom    6 type  2   force =    -0.00000219    0.00000219    0.00000219
     atom    7 type  2   force =     0.00000219   -0.00000219   -0.00000219
     atom    8 type  2   force =    -0.00000219   -0.00000219   -0.00000219
     atom    9 type  1   force =    -0.00000000   -0.00000000    0.00000639
     atom   10 type  1   force =     0.00000000    0.00000473   -0.00000000
     atom   11 type  1   force =     0.00000473   -0.00000000   -0.00000000
     atom   12 type  1   force =     0.00000000    0.00000000   -0.00000639
     atom   13 type  1   force =     0.00000000    0.00000639   -0.00000000
     atom   14 type  1   force =    -0.00000473    0.00000000   -0.00000000
     atom   15 type  1   force =    -0.00000000    0.00000000   -0.00000473
     atom   16 type  1   force =     0.00000000   -0.00000639   -0.00000000
     atom   17 type  1   force =     0.00000473    0.00000000   -0.00000000
     atom   18 type  1   force =     0.00000000    0.00000000    0.00000473
     atom   19 type  1   force =    -0.00000000   -0.00000473   -0.00000000
     atom   20 type  1   force =    -0.00000473   -0.00000000   -0.00000000
     atom   21 type  1   force =     0.00000000   -0.00000000   -0.00000473
     atom   22 type  1   force =     0.00000000    0.00000473   -0.00000000
     atom   23 type  1   force =    -0.00000639    0.00000000   -0.00000000
     atom   24 type  1   force =     0.00000000    0.00000000    0.00000473
     atom   25 type  1   force =     0.00000000   -0.00000461   -0.00000000
     atom   26 type  1   force =     0.00000639   -0.00000000    0.00000000
     atom   27 type  1   force =    -0.00000000    0.00000000   -0.00000461
     atom   28 type  1   force =     0.00000000    0.00000461   -0.00000000
     atom   29 type  1   force =     0.00000461    0.00000000   -0.00000000
     atom   30 type  1   force =     0.00000000    0.00000000    0.00000461
     atom   31 type  1   force =     0.00000000   -0.00000473   -0.00000000
     atom   32 type  1   force =    -0.00000461    0.00000000   -0.00000000
     atom   33 type  3   force =    -0.00000000   -0.00000000   -0.00000000
     atom   34 type  3   force =     0.00000000    0.00000000   -0.00000000
     atom   35 type  3   force =     0.00000000   -0.00000000    0.00000000
     atom   36 type  3   force =    -0.00000000    0.00000000   -0.00000000

     Total force =     0.017963     Total SCF correction =     0.000028


     Computing stress (Cartesian axis) and pressure

          total   stress  (Ry/bohr**3)                   (kbar)     P=       -2.60
  -0.00001770   0.00000000   0.00000000           -2.60        0.00        0.00
   0.00000000  -0.00001770   0.00000000            0.00       -2.60        0.00
   0.00000000   0.00000000  -0.00001770            0.00        0.00       -2.60

     kinetic stress (kbar)   6460.87      0.00      0.00
                                0.00   6460.87      0.00
                                0.00      0.00   6460.87

     local   stress (kbar)  -4065.02     -0.00      0.00
                               -0.00  -4065.02      0.00
                                0.00      0.00  -4065.02

     nonloc. stress (kbar)   4404.33      0.00      0.00
                                0.00   4404.33      0.00
                                0.00      0.00   4404.33

     hartree stress (kbar)   7254.96      0.00     -0.00
                                0.00   7254.96     -0.00
                               -0.00     -0.00   7254.96

     exc-cor stress (kbar)  -2042.30      0.00     -0.00
                                0.00  -2042.30     -0.00
                               -0.00     -0.00  -2042.30

     corecor stress (kbar)   -444.41     -0.00     -0.00
                               -0.00   -444.41      0.00
                               -0.00      0.00   -444.41

     ewald   stress (kbar) -11571.03     -0.00      0.00
                               -0.00 -11571.03      0.00
                                0.00      0.00 -11571.03

     hubbard stress (kbar)      0.00      0.00      0.00
                                0.00      0.00      0.00
                                0.00      0.00      0.00

     DFT-D   stress (kbar)      0.00      0.00      0.00
                                0.00      0.00      0.00
                                0.00      0.00      0.00

     XDM     stress (kbar)      0.00      0.00      0.00
                                0.00      0.00      0.00
                                0.00      0.00      0.00

     dft-nl  stress (kbar)      0.00      0.00      0.00
                                0.00      0.00      0.00
                                0.00      0.00      0.00

     TS-vdW  stress (kbar)      0.00      0.00      0.00
                                0.00      0.00      0.00
                                0.00      0.00      0.00

     MDB     stress (kbar)      0.00      0.00      0.00
                                0.00      0.00      0.00
                                0.00      0.00      0.00

     3D-RISM stress (kbar)      0.00      0.00      0.00
                                0.00      0.00      0.00
                                0.00      0.00      0.00


     Writing all to output data dir ./out/ru-kp-11.save/

     init_run     :      4.47s CPU      5.39s WALL (       1 calls)
     electrons    :    106.23s CPU    129.21s WALL (       1 calls)
     forces       :      1.37s CPU      1.55s WALL (       1 calls)
     stress       :     10.17s CPU     10.41s WALL (       1 calls)

     Called by init_run:
     wfcinit      :      3.17s CPU      3.71s WALL (       1 calls)
     wfcinit:atom :      0.05s CPU      0.06s WALL (      28 calls)
     wfcinit:wfcr :      2.90s CPU      3.42s WALL (      28 calls)
     potinit      :      0.47s CPU      0.63s WALL (       1 calls)
     hinit0       :      0.37s CPU      0.42s WALL (       1 calls)

     Called by electrons:
     c_bands      :     91.63s CPU    110.04s WALL (      13 calls)
     sum_band     :     10.92s CPU     13.17s WALL (      13 calls)
     v_of_rho     :      1.03s CPU      1.21s WALL (      14 calls)
     v_h          :      0.11s CPU      0.12s WALL (      14 calls)
     v_xc         :      1.06s CPU      1.24s WALL (      16 calls)
     newd         :      1.46s CPU      1.89s WALL (      14 calls)
     PAW_pot      :      1.14s CPU      2.88s WALL (      14 calls)
     mix_rho      :      0.13s CPU      0.17s WALL (      13 calls)

     Called by c_bands:
     init_us_2    :      1.33s CPU      1.42s WALL (     812 calls)
     init_us_2:cp :      1.33s CPU      1.42s WALL (     812 calls)
     cegterg      :     86.05s CPU     96.39s WALL (     364 calls)

     Called by sum_band:
     sum_band:wei :      0.01s CPU      0.01s WALL (      13 calls)
     sum_band:loo :      9.20s CPU     10.65s WALL (      13 calls)
     sum_band:buf :      0.18s CPU      0.19s WALL (     364 calls)
     sum_band:ini :      0.52s CPU      0.54s WALL (     364 calls)
     sum_band:cal :      1.55s CPU      1.87s WALL (     364 calls)
     sum_band:bec :      0.04s CPU      0.05s WALL (     364 calls)
     addusdens    :      1.58s CPU      2.14s WALL (      13 calls)
                                        0.00s GPU  (      13 calls)
     addusd:skk   :      0.09s CPU      0.10s WALL (      39 calls)
                                        0.00s GPU  (      39 calls)

     Called by *egterg:
     cdiaghg      :     12.41s CPU     13.15s WALL (    2819 calls)
     cegterg:over :      4.42s CPU      5.15s WALL (    2455 calls)
     cegterg:upda :      3.10s CPU      3.19s WALL (    2455 calls)
     cegterg:last :      5.12s CPU      5.16s WALL (    1035 calls)
     h_psi        :     56.64s CPU     65.34s WALL (    2847 calls)
     s_psi        :      4.41s CPU      4.53s WALL (    2847 calls)
     g_psi        :      0.14s CPU      0.15s WALL (    2455 calls)

     Called by h_psi:
     h_psi:calbec :      8.02s CPU      9.36s WALL (    2847 calls)
     vloc_psi     :     43.29s CPU     50.38s WALL (    2847 calls)
     add_vuspsi   :      4.84s CPU      5.09s WALL (    2847 calls)

     General routines
     calbec       :     10.12s CPU     11.98s WALL (    3351 calls)
     fft          :      0.81s CPU      1.08s WALL (     205 calls)
     ffts         :      0.16s CPU      0.17s WALL (      27 calls)
     fftw         :     40.14s CPU     46.82s WALL (  170776 calls)
     interpolate  :      0.21s CPU      0.23s WALL (      14 calls)

     Parallel routines

     PAW routines
     PAW_pot      :      1.14s CPU      2.88s WALL (      14 calls)
     PAW_symme    :      0.01s CPU      0.02s WALL (      27 calls)

     PWSCF        :   2m 3.29s CPU   2m29.78s WALL


   This run was terminated on:  22:33:35  13Jun2025            

=------------------------------------------------------------------------------=
   JOB DONE.
=------------------------------------------------------------------------------=
