
     Program PWSCF v.7.2 starts on 13Jun2025 at 22:33:36 

     This program is part of the open-source Quantum ESPRESSO suite
     for quantum simulation of materials; please cite
         "P. Giannozzi et al., J. Phys.:Condens. Matter 21 395502 (2009);
         "P. Giannozzi et al., J. Phys.:Condens. Matter 29 465901 (2017);
         "P. Giannozzi et al., J. Chem. Phys. 152 154105 (2020);
          URL http://www.quantum-espresso.org", 
     in publications or presentations arising from this work. More details at
     http://www.quantum-espresso.org/quote

     Parallel version (MPI & OpenMP), running on      64 processor cores
     Number of MPI processes:                64
     Threads/MPI process:                     1

     MPI processes distributed on     1 nodes
     226004 MiB available memory on the printing compute node when the environment starts

     Reading input from ru_kp_12.in

     Current dimensions of program PWSCF are:
     Max number of different atomic species (ntypx) = 10
     Max number of k-points (npk) =  40000
     Max angular momentum in pseudopotentials (lmaxx) =  4
     Message from routine read_pp_mesh:
     mismatch in mesh size, discarding the one in header
     file Mg.pbesol-n-kjpaw_psl.0.3.0.UPF: wavefunction(s)  3S renormalized
     Found identity + (  0.0000  0.5000 -0.5000) symmetry
     This is a supercell, fractional translations are disabled
     Message from routine setup:
     using ibrav=0 with symmetry is DISCOURAGED, use correct ibrav instead

     K-points division:     npool     =       2
     R & G space division:  proc/nbgrp/npool/nimage =      32
     Subspace diagonalization in iterative solution of the eigenvalue problem:
     a serial algorithm will be used


     Parallelization info
     --------------------
     sticks:   dense  smooth     PW     G-vecs:    dense   smooth      PW
     Min         416     138     37                36246     6970     993
     Max         417     139     38                36253     6975    1000
     Sum       13341    4445   1209              1160031   223135   31919

     Using Slab Decomposition



     bravais-lattice index     =            0
     lattice parameter (alat)  =      12.4630  a.u.
     unit-cell volume          =    1935.8122 (a.u.)^3
     number of atoms/cell      =           36
     number of atomic types    =            3
     number of electrons       =       104.00
     number of Kohn-Sham states=           62
     kinetic-energy cutoff     =      90.0000  Ry
     charge density cutoff     =    1080.0000  Ry
     scf convergence threshold =      7.2E-09
     mixing beta               =       0.4000
     number of iterations used =            8  plain     mixing
     Exchange-correlation= SLA PW PSX PSC
                           (   1   4  10   8   0   0   0)

     celldm(1)=  12.462956  celldm(2)=   0.000000  celldm(3)=   0.000000
     celldm(4)=   0.000000  celldm(5)=   0.000000  celldm(6)=   0.000000

     crystal axes: (cart. coord. in units of alat)
               a(1) = (   1.000000   0.000000   0.000000 )  
               a(2) = (   0.000000   1.000000   0.000000 )  
               a(3) = (   0.000000   0.000000   1.000000 )  

     reciprocal axes: (cart. coord. in units 2 pi/alat)
               b(1) = (  1.000000  0.000000  0.000000 )  
               b(2) = (  0.000000  1.000000  0.000000 )  
               b(3) = (  0.000000  0.000000  1.000000 )  


     PseudoPot. # 1 for H  read from file:
     ./pseudo/H.pbesol-rrkjus_psl.1.0.0.UPF
     MD5 check sum: 0324ed591cc0147dc3d88cad0d33f665
     Pseudo is Ultrasoft, Zval =  1.0
     Generated using "atomic" code by A. Dal Corso  v.6.0 svn rev. 13079
     Using radial grid of  929 points,  2 beta functions with: 
                l(1) =   0
                l(2) =   0
     Q(r) pseudized with 0 coefficients 


     PseudoPot. # 2 for Mg read from file:
     ./pseudo/Mg.pbesol-n-kjpaw_psl.0.3.0.UPF
     MD5 check sum: a6c8d2ff726a5f7005dea00130d82930
     Pseudo is Projector augmented-wave + core cor, Zval =  2.0
     Generated using "atomic" code by A. Dal Corso  v.6.1 svn rev. 13369
     Shape of augmentation charge: PSQ
     Using radial grid of 1129 points,  4 beta functions with: 
                l(1) =   0
                l(2) =   0
                l(3) =   1
                l(4) =   1
     Q(r) pseudized with 0 coefficients 


     PseudoPot. # 3 for Ru read from file:
     ./pseudo/Ru.upf
     MD5 check sum: be3bb57e49b2afd7571f8dd5d9c7d987
     Pseudo is Projector augmented-wave + core cor, Zval = 16.0
     Generated using ATOMPAW code
     Shape of augmentation charge: SINC**2
     Using radial grid of 2342 points,  6 beta functions with: 
                l(1) =   0
                l(2) =   0
                l(3) =   1
                l(4) =   1
                l(5) =   2
                l(6) =   2
     Q(r) pseudized with 0 coefficients 


     atomic species   valence    mass     pseudopotential
        H              1.00     1.00794     H ( 1.00)
        Mg             2.00    24.30500     Mg( 1.00)
        Ru            16.00   101.07000     Ru( 1.00)

     48 Sym. Ops., with inversion, found


                                    s                        frac. trans.

      isym =  1     identity                                     

 cryst.   s( 1) = (     1          0          0      )
                  (     0          1          0      )
                  (     0          0          1      )

 cart.    s( 1) = (  1.0000000  0.0000000  0.0000000 )
                  (  0.0000000  1.0000000  0.0000000 )
                  (  0.0000000  0.0000000  1.0000000 )


      isym =  2     180 deg rotation - cart. axis [0,0,1]        

 cryst.   s( 2) = (    -1          0          0      )
                  (     0         -1          0      )
                  (     0          0          1      )

 cart.    s( 2) = ( -1.0000000  0.0000000  0.0000000 )
                  (  0.0000000 -1.0000000  0.0000000 )
                  (  0.0000000  0.0000000  1.0000000 )


      isym =  3     180 deg rotation - cart. axis [0,1,0]        

 cryst.   s( 3) = (    -1          0          0      )
                  (     0          1          0      )
                  (     0          0         -1      )

 cart.    s( 3) = ( -1.0000000  0.0000000  0.0000000 )
                  (  0.0000000  1.0000000  0.0000000 )
                  (  0.0000000  0.0000000 -1.0000000 )


      isym =  4     180 deg rotation - cart. axis [1,0,0]        

 cryst.   s( 4) = (     1          0          0      )
                  (     0         -1          0      )
                  (     0          0         -1      )

 cart.    s( 4) = (  1.0000000  0.0000000  0.0000000 )
                  (  0.0000000 -1.0000000  0.0000000 )
                  (  0.0000000  0.0000000 -1.0000000 )


      isym =  5     180 deg rotation - cart. axis [1,1,0]        

 cryst.   s( 5) = (     0          1          0      )
                  (     1          0          0      )
                  (     0          0         -1      )

 cart.    s( 5) = (  0.0000000  1.0000000  0.0000000 )
                  (  1.0000000  0.0000000  0.0000000 )
                  (  0.0000000  0.0000000 -1.0000000 )


      isym =  6     180 deg rotation - cart. axis [1,-1,0]       

 cryst.   s( 6) = (     0         -1          0      )
                  (    -1          0          0      )
                  (     0          0         -1      )

 cart.    s( 6) = (  0.0000000 -1.0000000  0.0000000 )
                  ( -1.0000000  0.0000000  0.0000000 )
                  (  0.0000000  0.0000000 -1.0000000 )


      isym =  7      90 deg rotation - cart. axis [0,0,-1]       

 cryst.   s( 7) = (     0         -1          0      )
                  (     1          0          0      )
                  (     0          0          1      )

 cart.    s( 7) = (  0.0000000  1.0000000  0.0000000 )
                  ( -1.0000000  0.0000000  0.0000000 )
                  (  0.0000000  0.0000000  1.0000000 )


      isym =  8      90 deg rotation - cart. axis [0,0,1]        

 cryst.   s( 8) = (     0          1          0      )
                  (    -1          0          0      )
                  (     0          0          1      )

 cart.    s( 8) = (  0.0000000 -1.0000000  0.0000000 )
                  (  1.0000000  0.0000000  0.0000000 )
                  (  0.0000000  0.0000000  1.0000000 )


      isym =  9     180 deg rotation - cart. axis [1,0,1]        

 cryst.   s( 9) = (     0          0          1      )
                  (     0         -1          0      )
                  (     1          0          0      )

 cart.    s( 9) = (  0.0000000  0.0000000  1.0000000 )
                  (  0.0000000 -1.0000000  0.0000000 )
                  (  1.0000000  0.0000000  0.0000000 )


      isym = 10     180 deg rotation - cart. axis [-1,0,1]       

 cryst.   s(10) = (     0          0         -1      )
                  (     0         -1          0      )
                  (    -1          0          0      )

 cart.    s(10) = (  0.0000000  0.0000000 -1.0000000 )
                  (  0.0000000 -1.0000000  0.0000000 )
                  ( -1.0000000  0.0000000  0.0000000 )


      isym = 11      90 deg rotation - cart. axis [0,1,0]        

 cryst.   s(11) = (     0          0         -1      )
                  (     0          1          0      )
                  (     1          0          0      )

 cart.    s(11) = (  0.0000000  0.0000000  1.0000000 )
                  (  0.0000000  1.0000000  0.0000000 )
                  ( -1.0000000  0.0000000  0.0000000 )


      isym = 12      90 deg rotation - cart. axis [0,-1,0]       

 cryst.   s(12) = (     0          0          1      )
                  (     0          1          0      )
                  (    -1          0          0      )

 cart.    s(12) = (  0.0000000  0.0000000 -1.0000000 )
                  (  0.0000000  1.0000000  0.0000000 )
                  (  1.0000000  0.0000000  0.0000000 )


      isym = 13     180 deg rotation - cart. axis [0,1,1]        

 cryst.   s(13) = (    -1          0          0      )
                  (     0          0          1      )
                  (     0          1          0      )

 cart.    s(13) = ( -1.0000000  0.0000000  0.0000000 )
                  (  0.0000000  0.0000000  1.0000000 )
                  (  0.0000000  1.0000000  0.0000000 )


      isym = 14     180 deg rotation - cart. axis [0,1,-1]       

 cryst.   s(14) = (    -1          0          0      )
                  (     0          0         -1      )
                  (     0         -1          0      )

 cart.    s(14) = ( -1.0000000  0.0000000  0.0000000 )
                  (  0.0000000  0.0000000 -1.0000000 )
                  (  0.0000000 -1.0000000  0.0000000 )


      isym = 15      90 deg rotation - cart. axis [-1,0,0]       

 cryst.   s(15) = (     1          0          0      )
                  (     0          0         -1      )
                  (     0          1          0      )

 cart.    s(15) = (  1.0000000  0.0000000  0.0000000 )
                  (  0.0000000  0.0000000  1.0000000 )
                  (  0.0000000 -1.0000000  0.0000000 )


      isym = 16      90 deg rotation - cart. axis [1,0,0]        

 cryst.   s(16) = (     1          0          0      )
                  (     0          0          1      )
                  (     0         -1          0      )

 cart.    s(16) = (  1.0000000  0.0000000  0.0000000 )
                  (  0.0000000  0.0000000 -1.0000000 )
                  (  0.0000000  1.0000000  0.0000000 )


      isym = 17     120 deg rotation - cart. axis [-1,-1,-1]     

 cryst.   s(17) = (     0          0          1      )
                  (     1          0          0      )
                  (     0          1          0      )

 cart.    s(17) = (  0.0000000  1.0000000  0.0000000 )
                  (  0.0000000  0.0000000  1.0000000 )
                  (  1.0000000  0.0000000  0.0000000 )


      isym = 18     120 deg rotation - cart. axis [-1,1,1]       

 cryst.   s(18) = (     0          0         -1      )
                  (    -1          0          0      )
                  (     0          1          0      )

 cart.    s(18) = (  0.0000000 -1.0000000  0.0000000 )
                  (  0.0000000  0.0000000  1.0000000 )
                  ( -1.0000000  0.0000000  0.0000000 )


      isym = 19     120 deg rotation - cart. axis [1,1,-1]       

 cryst.   s(19) = (     0          0         -1      )
                  (     1          0          0      )
                  (     0         -1          0      )

 cart.    s(19) = (  0.0000000  1.0000000  0.0000000 )
                  (  0.0000000  0.0000000 -1.0000000 )
                  ( -1.0000000  0.0000000  0.0000000 )


      isym = 20     120 deg rotation - cart. axis [1,-1,1]       

 cryst.   s(20) = (     0          0          1      )
                  (    -1          0          0      )
                  (     0         -1          0      )

 cart.    s(20) = (  0.0000000 -1.0000000  0.0000000 )
                  (  0.0000000  0.0000000 -1.0000000 )
                  (  1.0000000  0.0000000  0.0000000 )


      isym = 21     120 deg rotation - cart. axis [1,1,1]        

 cryst.   s(21) = (     0          1          0      )
                  (     0          0          1      )
                  (     1          0          0      )

 cart.    s(21) = (  0.0000000  0.0000000  1.0000000 )
                  (  1.0000000  0.0000000  0.0000000 )
                  (  0.0000000  1.0000000  0.0000000 )


      isym = 22     120 deg rotation - cart. axis [-1,1,-1]      

 cryst.   s(22) = (     0         -1          0      )
                  (     0          0         -1      )
                  (     1          0          0      )

 cart.    s(22) = (  0.0000000  0.0000000  1.0000000 )
                  ( -1.0000000  0.0000000  0.0000000 )
                  (  0.0000000 -1.0000000  0.0000000 )


      isym = 23     120 deg rotation - cart. axis [1,-1,-1]      

 cryst.   s(23) = (     0         -1          0      )
                  (     0          0          1      )
                  (    -1          0          0      )

 cart.    s(23) = (  0.0000000  0.0000000 -1.0000000 )
                  ( -1.0000000  0.0000000  0.0000000 )
                  (  0.0000000  1.0000000  0.0000000 )


      isym = 24     120 deg rotation - cart. axis [-1,-1,1]      

 cryst.   s(24) = (     0          1          0      )
                  (     0          0         -1      )
                  (    -1          0          0      )

 cart.    s(24) = (  0.0000000  0.0000000 -1.0000000 )
                  (  1.0000000  0.0000000  0.0000000 )
                  (  0.0000000 -1.0000000  0.0000000 )


      isym = 25     inversion                                    

 cryst.   s(25) = (    -1          0          0      )
                  (     0         -1          0      )
                  (     0          0         -1      )

 cart.    s(25) = ( -1.0000000  0.0000000  0.0000000 )
                  (  0.0000000 -1.0000000  0.0000000 )
                  (  0.0000000  0.0000000 -1.0000000 )


      isym = 26     inv. 180 deg rotation - cart. axis [0,0,1]   

 cryst.   s(26) = (     1          0          0      )
                  (     0          1          0      )
                  (     0          0         -1      )

 cart.    s(26) = (  1.0000000  0.0000000  0.0000000 )
                  (  0.0000000  1.0000000  0.0000000 )
                  (  0.0000000  0.0000000 -1.0000000 )


      isym = 27     inv. 180 deg rotation - cart. axis [0,1,0]   

 cryst.   s(27) = (     1          0          0      )
                  (     0         -1          0      )
                  (     0          0          1      )

 cart.    s(27) = (  1.0000000  0.0000000  0.0000000 )
                  (  0.0000000 -1.0000000  0.0000000 )
                  (  0.0000000  0.0000000  1.0000000 )


      isym = 28     inv. 180 deg rotation - cart. axis [1,0,0]   

 cryst.   s(28) = (    -1          0          0      )
                  (     0          1          0      )
                  (     0          0          1      )

 cart.    s(28) = ( -1.0000000  0.0000000  0.0000000 )
                  (  0.0000000  1.0000000  0.0000000 )
                  (  0.0000000  0.0000000  1.0000000 )


      isym = 29     inv. 180 deg rotation - cart. axis [1,1,0]   

 cryst.   s(29) = (     0         -1          0      )
                  (    -1          0          0      )
                  (     0          0          1      )

 cart.    s(29) = (  0.0000000 -1.0000000  0.0000000 )
                  ( -1.0000000  0.0000000  0.0000000 )
                  (  0.0000000  0.0000000  1.0000000 )


      isym = 30     inv. 180 deg rotation - cart. axis [1,-1,0]  

 cryst.   s(30) = (     0          1          0      )
                  (     1          0          0      )
                  (     0          0          1      )

 cart.    s(30) = (  0.0000000  1.0000000  0.0000000 )
                  (  1.0000000  0.0000000  0.0000000 )
                  (  0.0000000  0.0000000  1.0000000 )


      isym = 31     inv.  90 deg rotation - cart. axis [0,0,-1]  

 cryst.   s(31) = (     0          1          0      )
                  (    -1          0          0      )
                  (     0          0         -1      )

 cart.    s(31) = (  0.0000000 -1.0000000  0.0000000 )
                  (  1.0000000  0.0000000  0.0000000 )
                  (  0.0000000  0.0000000 -1.0000000 )


      isym = 32     inv.  90 deg rotation - cart. axis [0,0,1]   

 cryst.   s(32) = (     0         -1          0      )
                  (     1          0          0      )
                  (     0          0         -1      )

 cart.    s(32) = (  0.0000000  1.0000000  0.0000000 )
                  ( -1.0000000  0.0000000  0.0000000 )
                  (  0.0000000  0.0000000 -1.0000000 )


      isym = 33     inv. 180 deg rotation - cart. axis [1,0,1]   

 cryst.   s(33) = (     0          0         -1      )
                  (     0          1          0      )
                  (    -1          0          0      )

 cart.    s(33) = (  0.0000000  0.0000000 -1.0000000 )
                  (  0.0000000  1.0000000  0.0000000 )
                  ( -1.0000000  0.0000000  0.0000000 )


      isym = 34     inv. 180 deg rotation - cart. axis [-1,0,1]  

 cryst.   s(34) = (     0          0          1      )
                  (     0          1          0      )
                  (     1          0          0      )

 cart.    s(34) = (  0.0000000  0.0000000  1.0000000 )
                  (  0.0000000  1.0000000  0.0000000 )
                  (  1.0000000  0.0000000  0.0000000 )


      isym = 35     inv.  90 deg rotation - cart. axis [0,1,0]   

 cryst.   s(35) = (     0          0          1      )
                  (     0         -1          0      )
                  (    -1          0          0      )

 cart.    s(35) = (  0.0000000  0.0000000 -1.0000000 )
                  (  0.0000000 -1.0000000  0.0000000 )
                  (  1.0000000  0.0000000  0.0000000 )


      isym = 36     inv.  90 deg rotation - cart. axis [0,-1,0]  

 cryst.   s(36) = (     0          0         -1      )
                  (     0         -1          0      )
                  (     1          0          0      )

 cart.    s(36) = (  0.0000000  0.0000000  1.0000000 )
                  (  0.0000000 -1.0000000  0.0000000 )
                  ( -1.0000000  0.0000000  0.0000000 )


      isym = 37     inv. 180 deg rotation - cart. axis [0,1,1]   

 cryst.   s(37) = (     1          0          0      )
                  (     0          0         -1      )
                  (     0         -1          0      )

 cart.    s(37) = (  1.0000000  0.0000000  0.0000000 )
                  (  0.0000000  0.0000000 -1.0000000 )
                  (  0.0000000 -1.0000000  0.0000000 )


      isym = 38     inv. 180 deg rotation - cart. axis [0,1,-1]  

 cryst.   s(38) = (     1          0          0      )
                  (     0          0          1      )
                  (     0          1          0      )

 cart.    s(38) = (  1.0000000  0.0000000  0.0000000 )
                  (  0.0000000  0.0000000  1.0000000 )
                  (  0.0000000  1.0000000  0.0000000 )


      isym = 39     inv.  90 deg rotation - cart. axis [-1,0,0]  

 cryst.   s(39) = (    -1          0          0      )
                  (     0          0          1      )
                  (     0         -1          0      )

 cart.    s(39) = ( -1.0000000  0.0000000  0.0000000 )
                  (  0.0000000  0.0000000 -1.0000000 )
                  (  0.0000000  1.0000000  0.0000000 )


      isym = 40     inv.  90 deg rotation - cart. axis [1,0,0]   

 cryst.   s(40) = (    -1          0          0      )
                  (     0          0         -1      )
                  (     0          1          0      )

 cart.    s(40) = ( -1.0000000  0.0000000  0.0000000 )
                  (  0.0000000  0.0000000  1.0000000 )
                  (  0.0000000 -1.0000000  0.0000000 )


      isym = 41     inv. 120 deg rotation - cart. axis [-1,-1,-1]

 cryst.   s(41) = (     0          0         -1      )
                  (    -1          0          0      )
                  (     0         -1          0      )

 cart.    s(41) = (  0.0000000 -1.0000000  0.0000000 )
                  (  0.0000000  0.0000000 -1.0000000 )
                  ( -1.0000000  0.0000000  0.0000000 )


      isym = 42     inv. 120 deg rotation - cart. axis [-1,1,1]  

 cryst.   s(42) = (     0          0          1      )
                  (     1          0          0      )
                  (     0         -1          0      )

 cart.    s(42) = (  0.0000000  1.0000000  0.0000000 )
                  (  0.0000000  0.0000000 -1.0000000 )
                  (  1.0000000  0.0000000  0.0000000 )


      isym = 43     inv. 120 deg rotation - cart. axis [1,1,-1]  

 cryst.   s(43) = (     0          0          1      )
                  (    -1          0          0      )
                  (     0          1          0      )

 cart.    s(43) = (  0.0000000 -1.0000000  0.0000000 )
                  (  0.0000000  0.0000000  1.0000000 )
                  (  1.0000000  0.0000000  0.0000000 )


      isym = 44     inv. 120 deg rotation - cart. axis [1,-1,1]  

 cryst.   s(44) = (     0          0         -1      )
                  (     1          0          0      )
                  (     0          1          0      )

 cart.    s(44) = (  0.0000000  1.0000000  0.0000000 )
                  (  0.0000000  0.0000000  1.0000000 )
                  ( -1.0000000  0.0000000  0.0000000 )


      isym = 45     inv. 120 deg rotation - cart. axis [1,1,1]   

 cryst.   s(45) = (     0         -1          0      )
                  (     0          0         -1      )
                  (    -1          0          0      )

 cart.    s(45) = (  0.0000000  0.0000000 -1.0000000 )
                  ( -1.0000000  0.0000000  0.0000000 )
                  (  0.0000000 -1.0000000  0.0000000 )


      isym = 46     inv. 120 deg rotation - cart. axis [-1,1,-1] 

 cryst.   s(46) = (     0          1          0      )
                  (     0          0          1      )
                  (    -1          0          0      )

 cart.    s(46) = (  0.0000000  0.0000000 -1.0000000 )
                  (  1.0000000  0.0000000  0.0000000 )
                  (  0.0000000  1.0000000  0.0000000 )


      isym = 47     inv. 120 deg rotation - cart. axis [1,-1,-1] 

 cryst.   s(47) = (     0          1          0      )
                  (     0          0         -1      )
                  (     1          0          0      )

 cart.    s(47) = (  0.0000000  0.0000000  1.0000000 )
                  (  1.0000000  0.0000000  0.0000000 )
                  (  0.0000000 -1.0000000  0.0000000 )


      isym = 48     inv. 120 deg rotation - cart. axis [-1,-1,1] 

 cryst.   s(48) = (     0         -1          0      )
                  (     0          0          1      )
                  (     1          0          0      )

 cart.    s(48) = (  0.0000000  0.0000000  1.0000000 )
                  ( -1.0000000  0.0000000  0.0000000 )
                  (  0.0000000  1.0000000  0.0000000 )


   Cartesian axes

     site n.     atom                  positions (alat units)
         1           Mg  tau(   1) = (   0.2500000   0.7500000   0.2500000  )
         2           Mg  tau(   2) = (   0.7500000   0.7500000   0.2500000  )
         3           Mg  tau(   3) = (   0.2500000   0.2500000   0.7500000  )
         4           Mg  tau(   4) = (   0.7500000   0.2500000   0.7500000  )
         5           Mg  tau(   5) = (   0.7500000   0.7500000   0.7500000  )
         6           Mg  tau(   6) = (   0.2500000   0.7500000   0.7500000  )
         7           Mg  tau(   7) = (   0.7500000   0.2500000   0.2500000  )
         8           Mg  tau(   8) = (   0.2500000   0.2500000   0.2500000  )
         9           H   tau(   9) = (   0.0000000   0.0000000   0.7469588  )
        10           H   tau(  10) = (   0.0000000   0.7530412   0.5000000  )
        11           H   tau(  11) = (   0.7530412   0.0000000   0.5000000  )
        12           H   tau(  12) = (   0.0000000   0.0000000   0.2530412  )
        13           H   tau(  13) = (   0.0000000   0.7469588   0.0000000  )
        14           H   tau(  14) = (   0.2469588   0.0000000   0.5000000  )
        15           H   tau(  15) = (   0.0000000   0.5000000   0.2469588  )
        16           H   tau(  16) = (   0.0000000   0.2530412   0.0000000  )
        17           H   tau(  17) = (   0.7530412   0.5000000   0.0000000  )
        18           H   tau(  18) = (   0.0000000   0.5000000   0.7530412  )
        19           H   tau(  19) = (   0.0000000   0.2469588   0.5000000  )
        20           H   tau(  20) = (   0.2469588   0.5000000   0.0000000  )
        21           H   tau(  21) = (   0.5000000   0.0000000   0.2469588  )
        22           H   tau(  22) = (   0.5000000   0.7530412   0.0000000  )
        23           H   tau(  23) = (   0.2530412   0.0000000   0.0000000  )
        24           H   tau(  24) = (   0.5000000   0.0000000   0.7530412  )
        25           H   tau(  25) = (   0.5000000   0.7469588   0.5000000  )
        26           H   tau(  26) = (   0.7469588   0.0000000   0.0000000  )
        27           H   tau(  27) = (   0.5000000   0.5000000   0.7469588  )
        28           H   tau(  28) = (   0.5000000   0.2530412   0.5000000  )
        29           H   tau(  29) = (   0.2530412   0.5000000   0.5000000  )
        30           H   tau(  30) = (   0.5000000   0.5000000   0.2530412  )
        31           H   tau(  31) = (   0.5000000   0.2469588   0.0000000  )
        32           H   tau(  32) = (   0.7469588   0.5000000   0.5000000  )
        33           Ru  tau(  33) = (   0.0000000   0.0000000   0.0000000  )
        34           Ru  tau(  34) = (   0.0000000   0.5000000   0.5000000  )
        35           Ru  tau(  35) = (   0.5000000   0.0000000   0.5000000  )
        36           Ru  tau(  36) = (   0.5000000   0.5000000   0.0000000  )

   Crystallographic axes

     site n.     atom                  positions (cryst. coord.)
         1           Mg  tau(   1) = (  0.2500000  0.7500000  0.2500000  )
         2           Mg  tau(   2) = (  0.7500000  0.7500000  0.2500000  )
         3           Mg  tau(   3) = (  0.2500000  0.2500000  0.7500000  )
         4           Mg  tau(   4) = (  0.7500000  0.2500000  0.7500000  )
         5           Mg  tau(   5) = (  0.7500000  0.7500000  0.7500000  )
         6           Mg  tau(   6) = (  0.2500000  0.7500000  0.7500000  )
         7           Mg  tau(   7) = (  0.7500000  0.2500000  0.2500000  )
         8           Mg  tau(   8) = (  0.2500000  0.2500000  0.2500000  )
         9           H   tau(   9) = (  0.0000000  0.0000000  0.7469588  )
        10           H   tau(  10) = (  0.0000000  0.7530412  0.5000000  )
        11           H   tau(  11) = (  0.7530412  0.0000000  0.5000000  )
        12           H   tau(  12) = (  0.0000000  0.0000000  0.2530412  )
        13           H   tau(  13) = (  0.0000000  0.7469588  0.0000000  )
        14           H   tau(  14) = (  0.2469588  0.0000000  0.5000000  )
        15           H   tau(  15) = (  0.0000000  0.5000000  0.2469588  )
        16           H   tau(  16) = (  0.0000000  0.2530412  0.0000000  )
        17           H   tau(  17) = (  0.7530412  0.5000000  0.0000000  )
        18           H   tau(  18) = (  0.0000000  0.5000000  0.7530412  )
        19           H   tau(  19) = (  0.0000000  0.2469588  0.5000000  )
        20           H   tau(  20) = (  0.2469588  0.5000000  0.0000000  )
        21           H   tau(  21) = (  0.5000000  0.0000000  0.2469588  )
        22           H   tau(  22) = (  0.5000000  0.7530412  0.0000000  )
        23           H   tau(  23) = (  0.2530412  0.0000000  0.0000000  )
        24           H   tau(  24) = (  0.5000000  0.0000000  0.7530412  )
        25           H   tau(  25) = (  0.5000000  0.7469588  0.5000000  )
        26           H   tau(  26) = (  0.7469588  0.0000000  0.0000000  )
        27           H   tau(  27) = (  0.5000000  0.5000000  0.7469588  )
        28           H   tau(  28) = (  0.5000000  0.2530412  0.5000000  )
        29           H   tau(  29) = (  0.2530412  0.5000000  0.5000000  )
        30           H   tau(  30) = (  0.5000000  0.5000000  0.2530412  )
        31           H   tau(  31) = (  0.5000000  0.2469588  0.0000000  )
        32           H   tau(  32) = (  0.7469588  0.5000000  0.5000000  )
        33           Ru  tau(  33) = (  0.0000000  0.0000000  0.0000000  )
        34           Ru  tau(  34) = (  0.0000000  0.5000000  0.5000000  )
        35           Ru  tau(  35) = (  0.5000000  0.0000000  0.5000000  )
        36           Ru  tau(  36) = (  0.5000000  0.5000000  0.0000000  )

     number of k points=    84  Gaussian smearing, width (Ry)=  0.0200
                       cart. coord. in units 2pi/alat
        k(    1) = (   0.0000000   0.0000000   0.0000000), wk =   0.0011574
        k(    2) = (   0.0000000   0.0000000   0.0833333), wk =   0.0069444
        k(    3) = (   0.0000000   0.0000000   0.1666667), wk =   0.0069444
        k(    4) = (   0.0000000   0.0000000   0.2500000), wk =   0.0069444
        k(    5) = (   0.0000000   0.0000000   0.3333333), wk =   0.0069444
        k(    6) = (   0.0000000   0.0000000   0.4166667), wk =   0.0069444
        k(    7) = (   0.0000000   0.0000000  -0.5000000), wk =   0.0034722
        k(    8) = (   0.0000000   0.0833333   0.0833333), wk =   0.0138889
        k(    9) = (   0.0000000   0.0833333   0.1666667), wk =   0.0277778
        k(   10) = (   0.0000000   0.0833333   0.2500000), wk =   0.0277778
        k(   11) = (   0.0000000   0.0833333   0.3333333), wk =   0.0277778
        k(   12) = (   0.0000000   0.0833333   0.4166667), wk =   0.0277778
        k(   13) = (   0.0000000   0.0833333  -0.5000000), wk =   0.0138889
        k(   14) = (   0.0000000   0.1666667   0.1666667), wk =   0.0138889
        k(   15) = (   0.0000000   0.1666667   0.2500000), wk =   0.0277778
        k(   16) = (   0.0000000   0.1666667   0.3333333), wk =   0.0277778
        k(   17) = (   0.0000000   0.1666667   0.4166667), wk =   0.0277778
        k(   18) = (   0.0000000   0.1666667  -0.5000000), wk =   0.0138889
        k(   19) = (   0.0000000   0.2500000   0.2500000), wk =   0.0138889
        k(   20) = (   0.0000000   0.2500000   0.3333333), wk =   0.0277778
        k(   21) = (   0.0000000   0.2500000   0.4166667), wk =   0.0277778
        k(   22) = (   0.0000000   0.2500000  -0.5000000), wk =   0.0138889
        k(   23) = (   0.0000000   0.3333333   0.3333333), wk =   0.0138889
        k(   24) = (   0.0000000   0.3333333   0.4166667), wk =   0.0277778
        k(   25) = (   0.0000000   0.3333333  -0.5000000), wk =   0.0138889
        k(   26) = (   0.0000000   0.4166667   0.4166667), wk =   0.0138889
        k(   27) = (   0.0000000   0.4166667  -0.5000000), wk =   0.0138889
        k(   28) = (   0.0000000  -0.5000000  -0.5000000), wk =   0.0034722
        k(   29) = (   0.0833333   0.0833333   0.0833333), wk =   0.0092593
        k(   30) = (   0.0833333   0.0833333   0.1666667), wk =   0.0277778
        k(   31) = (   0.0833333   0.0833333   0.2500000), wk =   0.0277778
        k(   32) = (   0.0833333   0.0833333   0.3333333), wk =   0.0277778
        k(   33) = (   0.0833333   0.0833333   0.4166667), wk =   0.0277778
        k(   34) = (   0.0833333   0.0833333  -0.5000000), wk =   0.0138889
        k(   35) = (   0.0833333   0.1666667   0.1666667), wk =   0.0277778
        k(   36) = (   0.0833333   0.1666667   0.2500000), wk =   0.0555556
        k(   37) = (   0.0833333   0.1666667   0.3333333), wk =   0.0555556
        k(   38) = (   0.0833333   0.1666667   0.4166667), wk =   0.0555556
        k(   39) = (   0.0833333   0.1666667  -0.5000000), wk =   0.0277778
        k(   40) = (   0.0833333   0.2500000   0.2500000), wk =   0.0277778
        k(   41) = (   0.0833333   0.2500000   0.3333333), wk =   0.0555556
        k(   42) = (   0.0833333   0.2500000   0.4166667), wk =   0.0555556
        k(   43) = (   0.0833333   0.2500000  -0.5000000), wk =   0.0277778
        k(   44) = (   0.0833333   0.3333333   0.3333333), wk =   0.0277778
        k(   45) = (   0.0833333   0.3333333   0.4166667), wk =   0.0555556
        k(   46) = (   0.0833333   0.3333333  -0.5000000), wk =   0.0277778
        k(   47) = (   0.0833333   0.4166667   0.4166667), wk =   0.0277778
        k(   48) = (   0.0833333   0.4166667  -0.5000000), wk =   0.0277778
        k(   49) = (   0.0833333  -0.5000000  -0.5000000), wk =   0.0069444
        k(   50) = (   0.1666667   0.1666667   0.1666667), wk =   0.0092593
        k(   51) = (   0.1666667   0.1666667   0.2500000), wk =   0.0277778
        k(   52) = (   0.1666667   0.1666667   0.3333333), wk =   0.0277778
        k(   53) = (   0.1666667   0.1666667   0.4166667), wk =   0.0277778
        k(   54) = (   0.1666667   0.1666667  -0.5000000), wk =   0.0138889
        k(   55) = (   0.1666667   0.2500000   0.2500000), wk =   0.0277778
        k(   56) = (   0.1666667   0.2500000   0.3333333), wk =   0.0555556
        k(   57) = (   0.1666667   0.2500000   0.4166667), wk =   0.0555556
        k(   58) = (   0.1666667   0.2500000  -0.5000000), wk =   0.0277778
        k(   59) = (   0.1666667   0.3333333   0.3333333), wk =   0.0277778
        k(   60) = (   0.1666667   0.3333333   0.4166667), wk =   0.0555556
        k(   61) = (   0.1666667   0.3333333  -0.5000000), wk =   0.0277778
        k(   62) = (   0.1666667   0.4166667   0.4166667), wk =   0.0277778
        k(   63) = (   0.1666667   0.4166667  -0.5000000), wk =   0.0277778
        k(   64) = (   0.1666667  -0.5000000  -0.5000000), wk =   0.0069444
        k(   65) = (   0.2500000   0.2500000   0.2500000), wk =   0.0092593
        k(   66) = (   0.2500000   0.2500000   0.3333333), wk =   0.0277778
        k(   67) = (   0.2500000   0.2500000   0.4166667), wk =   0.0277778
        k(   68) = (   0.2500000   0.2500000  -0.5000000), wk =   0.0138889
        k(   69) = (   0.2500000   0.3333333   0.3333333), wk =   0.0277778
        k(   70) = (   0.2500000   0.3333333   0.4166667), wk =   0.0555556
        k(   71) = (   0.2500000   0.3333333  -0.5000000), wk =   0.0277778
        k(   72) = (   0.2500000   0.4166667   0.4166667), wk =   0.0277778
        k(   73) = (   0.2500000   0.4166667  -0.5000000), wk =   0.0277778
        k(   74) = (   0.2500000  -0.5000000  -0.5000000), wk =   0.0069444
        k(   75) = (   0.3333333   0.3333333   0.3333333), wk =   0.0092593
        k(   76) = (   0.3333333   0.3333333   0.4166667), wk =   0.0277778
        k(   77) = (   0.3333333   0.3333333  -0.5000000), wk =   0.0138889
        k(   78) = (   0.3333333   0.4166667   0.4166667), wk =   0.0277778
        k(   79) = (   0.3333333   0.4166667  -0.5000000), wk =   0.0277778
        k(   80) = (   0.3333333  -0.5000000  -0.5000000), wk =   0.0069444
        k(   81) = (   0.4166667   0.4166667   0.4166667), wk =   0.0092593
        k(   82) = (   0.4166667   0.4166667  -0.5000000), wk =   0.0138889
        k(   83) = (   0.4166667  -0.5000000  -0.5000000), wk =   0.0069444
        k(   84) = (  -0.5000000  -0.5000000  -0.5000000), wk =   0.0011574

                       cryst. coord.
        k(    1) = (   0.0000000   0.0000000   0.0000000), wk =   0.0011574
        k(    2) = (   0.0000000   0.0000000   0.0833333), wk =   0.0069444
        k(    3) = (   0.0000000   0.0000000   0.1666667), wk =   0.0069444
        k(    4) = (   0.0000000   0.0000000   0.2500000), wk =   0.0069444
        k(    5) = (   0.0000000   0.0000000   0.3333333), wk =   0.0069444
        k(    6) = (   0.0000000   0.0000000   0.4166667), wk =   0.0069444
        k(    7) = (   0.0000000   0.0000000  -0.5000000), wk =   0.0034722
        k(    8) = (   0.0000000   0.0833333   0.0833333), wk =   0.0138889
        k(    9) = (   0.0000000   0.0833333   0.1666667), wk =   0.0277778
        k(   10) = (   0.0000000   0.0833333   0.2500000), wk =   0.0277778
        k(   11) = (   0.0000000   0.0833333   0.3333333), wk =   0.0277778
        k(   12) = (   0.0000000   0.0833333   0.4166667), wk =   0.0277778
        k(   13) = (   0.0000000   0.0833333  -0.5000000), wk =   0.0138889
        k(   14) = (   0.0000000   0.1666667   0.1666667), wk =   0.0138889
        k(   15) = (   0.0000000   0.1666667   0.2500000), wk =   0.0277778
        k(   16) = (   0.0000000   0.1666667   0.3333333), wk =   0.0277778
        k(   17) = (   0.0000000   0.1666667   0.4166667), wk =   0.0277778
        k(   18) = (   0.0000000   0.1666667  -0.5000000), wk =   0.0138889
        k(   19) = (   0.0000000   0.2500000   0.2500000), wk =   0.0138889
        k(   20) = (   0.0000000   0.2500000   0.3333333), wk =   0.0277778
        k(   21) = (   0.0000000   0.2500000   0.4166667), wk =   0.0277778
        k(   22) = (   0.0000000   0.2500000  -0.5000000), wk =   0.0138889
        k(   23) = (   0.0000000   0.3333333   0.3333333), wk =   0.0138889
        k(   24) = (   0.0000000   0.3333333   0.4166667), wk =   0.0277778
        k(   25) = (   0.0000000   0.3333333  -0.5000000), wk =   0.0138889
        k(   26) = (   0.0000000   0.4166667   0.4166667), wk =   0.0138889
        k(   27) = (   0.0000000   0.4166667  -0.5000000), wk =   0.0138889
        k(   28) = (   0.0000000  -0.5000000  -0.5000000), wk =   0.0034722
        k(   29) = (   0.0833333   0.0833333   0.0833333), wk =   0.0092593
        k(   30) = (   0.0833333   0.0833333   0.1666667), wk =   0.0277778
        k(   31) = (   0.0833333   0.0833333   0.2500000), wk =   0.0277778
        k(   32) = (   0.0833333   0.0833333   0.3333333), wk =   0.0277778
        k(   33) = (   0.0833333   0.0833333   0.4166667), wk =   0.0277778
        k(   34) = (   0.0833333   0.0833333  -0.5000000), wk =   0.0138889
        k(   35) = (   0.0833333   0.1666667   0.1666667), wk =   0.0277778
        k(   36) = (   0.0833333   0.1666667   0.2500000), wk =   0.0555556
        k(   37) = (   0.0833333   0.1666667   0.3333333), wk =   0.0555556
        k(   38) = (   0.0833333   0.1666667   0.4166667), wk =   0.0555556
        k(   39) = (   0.0833333   0.1666667  -0.5000000), wk =   0.0277778
        k(   40) = (   0.0833333   0.2500000   0.2500000), wk =   0.0277778
        k(   41) = (   0.0833333   0.2500000   0.3333333), wk =   0.0555556
        k(   42) = (   0.0833333   0.2500000   0.4166667), wk =   0.0555556
        k(   43) = (   0.0833333   0.2500000  -0.5000000), wk =   0.0277778
        k(   44) = (   0.0833333   0.3333333   0.3333333), wk =   0.0277778
        k(   45) = (   0.0833333   0.3333333   0.4166667), wk =   0.0555556
        k(   46) = (   0.0833333   0.3333333  -0.5000000), wk =   0.0277778
        k(   47) = (   0.0833333   0.4166667   0.4166667), wk =   0.0277778
        k(   48) = (   0.0833333   0.4166667  -0.5000000), wk =   0.0277778
        k(   49) = (   0.0833333  -0.5000000  -0.5000000), wk =   0.0069444
        k(   50) = (   0.1666667   0.1666667   0.1666667), wk =   0.0092593
        k(   51) = (   0.1666667   0.1666667   0.2500000), wk =   0.0277778
        k(   52) = (   0.1666667   0.1666667   0.3333333), wk =   0.0277778
        k(   53) = (   0.1666667   0.1666667   0.4166667), wk =   0.0277778
        k(   54) = (   0.1666667   0.1666667  -0.5000000), wk =   0.0138889
        k(   55) = (   0.1666667   0.2500000   0.2500000), wk =   0.0277778
        k(   56) = (   0.1666667   0.2500000   0.3333333), wk =   0.0555556
        k(   57) = (   0.1666667   0.2500000   0.4166667), wk =   0.0555556
        k(   58) = (   0.1666667   0.2500000  -0.5000000), wk =   0.0277778
        k(   59) = (   0.1666667   0.3333333   0.3333333), wk =   0.0277778
        k(   60) = (   0.1666667   0.3333333   0.4166667), wk =   0.0555556
        k(   61) = (   0.1666667   0.3333333  -0.5000000), wk =   0.0277778
        k(   62) = (   0.1666667   0.4166667   0.4166667), wk =   0.0277778
        k(   63) = (   0.1666667   0.4166667  -0.5000000), wk =   0.0277778
        k(   64) = (   0.1666667  -0.5000000  -0.5000000), wk =   0.0069444
        k(   65) = (   0.2500000   0.2500000   0.2500000), wk =   0.0092593
        k(   66) = (   0.2500000   0.2500000   0.3333333), wk =   0.0277778
        k(   67) = (   0.2500000   0.2500000   0.4166667), wk =   0.0277778
        k(   68) = (   0.2500000   0.2500000  -0.5000000), wk =   0.0138889
        k(   69) = (   0.2500000   0.3333333   0.3333333), wk =   0.0277778
        k(   70) = (   0.2500000   0.3333333   0.4166667), wk =   0.0555556
        k(   71) = (   0.2500000   0.3333333  -0.5000000), wk =   0.0277778
        k(   72) = (   0.2500000   0.4166667   0.4166667), wk =   0.0277778
        k(   73) = (   0.2500000   0.4166667  -0.5000000), wk =   0.0277778
        k(   74) = (   0.2500000  -0.5000000  -0.5000000), wk =   0.0069444
        k(   75) = (   0.3333333   0.3333333   0.3333333), wk =   0.0092593
        k(   76) = (   0.3333333   0.3333333   0.4166667), wk =   0.0277778
        k(   77) = (   0.3333333   0.3333333  -0.5000000), wk =   0.0138889
        k(   78) = (   0.3333333   0.4166667   0.4166667), wk =   0.0277778
        k(   79) = (   0.3333333   0.4166667  -0.5000000), wk =   0.0277778
        k(   80) = (   0.3333333  -0.5000000  -0.5000000), wk =   0.0069444
        k(   81) = (   0.4166667   0.4166667   0.4166667), wk =   0.0092593
        k(   82) = (   0.4166667   0.4166667  -0.5000000), wk =   0.0138889
        k(   83) = (   0.4166667  -0.5000000  -0.5000000), wk =   0.0069444
        k(   84) = (  -0.5000000  -0.5000000  -0.5000000), wk =   0.0011574

     Dense  grid:  1160031 G-vectors     FFT dimensions: ( 135, 135, 135)

     Smooth grid:   223135 G-vectors     FFT dimensions: (  75,  75,  75)

     Dynamical RAM for                 wfc:       0.82 MB

     Dynamical RAM for     wfc (w. buffer):      35.47 MB

     Dynamical RAM for           str. fact:       1.66 MB

     Dynamical RAM for           local pot:       0.00 MB

     Dynamical RAM for          nlocal pot:       2.45 MB

     Dynamical RAM for                qrad:       7.91 MB

     Dynamical RAM for          rho,v,vnew:       3.75 MB

     Dynamical RAM for               rhoin:       1.25 MB

     Dynamical RAM for            rho*nmix:       8.85 MB

     Dynamical RAM for           G-vectors:       2.13 MB

     Dynamical RAM for          h,s,v(r/c):       0.70 MB

     Dynamical RAM for          <psi|beta>:       0.17 MB

     Dynamical RAM for                 psi:       1.65 MB

     Dynamical RAM for                hpsi:       1.65 MB

     Dynamical RAM for                spsi:       1.65 MB

     Dynamical RAM for      wfcinit/wfcrot:       3.78 MB

     Dynamical RAM for           addusdens:      58.36 MB

     Dynamical RAM for          addusforce:      71.18 MB

     Dynamical RAM for         addusstress:      55.73 MB

     Estimated static dynamical RAM per process >      60.30 MB

     Estimated max dynamical RAM per process >     140.32 MB

     Estimated total dynamical RAM >       8.49 GB

     Initial potential from superposition of free atoms

     starting charge     103.9896, renormalised to     104.0000
     Starting wfcs are  128 randomized atomic wfcs
     Checking if some PAW data can be deallocated... 
       PAW data deallocated on   48 nodes for type:  2
       PAW data deallocated on   60 nodes for type:  3

     total cpu time spent up to now is        8.1 secs

     Self-consistent Calculation

     iteration #  1     ecut=    90.00 Ry     beta= 0.40
     Davidson diagonalization with overlap

---- Real-time Memory Report at c_bands before calling an iterative solver
           134 MiB given to the printing process from OS
             0 MiB allocation reported by mallinfo(arena+hblkhd)
        214681 MiB available memory on the node where the printing process lives
------------------
     ethr =  1.00E-02,  avg # of iterations =  2.3

     total cpu time spent up to now is       18.1 secs

     total energy              =   -1998.57606387 Ry
     estimated scf accuracy    <       1.37449106 Ry

     iteration #  2     ecut=    90.00 Ry     beta= 0.40
     Davidson diagonalization with overlap

---- Real-time Memory Report at c_bands before calling an iterative solver
           191 MiB given to the printing process from OS
             0 MiB allocation reported by mallinfo(arena+hblkhd)
        213728 MiB available memory on the node where the printing process lives
------------------
     ethr =  1.32E-03,  avg # of iterations =  2.0

     total cpu time spent up to now is       26.9 secs

     total energy              =   -1998.50707061 Ry
     estimated scf accuracy    <       0.33537040 Ry

     iteration #  3     ecut=    90.00 Ry     beta= 0.40
     Davidson diagonalization with overlap

---- Real-time Memory Report at c_bands before calling an iterative solver
           192 MiB given to the printing process from OS
             0 MiB allocation reported by mallinfo(arena+hblkhd)
        215103 MiB available memory on the node where the printing process lives
------------------
     ethr =  3.22E-04,  avg # of iterations =  2.7

     total cpu time spent up to now is       37.1 secs

     total energy              =   -1998.56771487 Ry
     estimated scf accuracy    <       0.00431393 Ry

     iteration #  4     ecut=    90.00 Ry     beta= 0.40
     Davidson diagonalization with overlap

---- Real-time Memory Report at c_bands before calling an iterative solver
           193 MiB given to the printing process from OS
             0 MiB allocation reported by mallinfo(arena+hblkhd)
        217868 MiB available memory on the node where the printing process lives
------------------
     c_bands:  3 eigenvalues not converged
     c_bands:  1 eigenvalues not converged
     c_bands:  3 eigenvalues not converged
     c_bands:  3 eigenvalues not converged
     c_bands:  1 eigenvalues not converged
     c_bands:  2 eigenvalues not converged
     c_bands:  1 eigenvalues not converged
     c_bands:  2 eigenvalues not converged
     c_bands:  1 eigenvalues not converged
     c_bands:  2 eigenvalues not converged
     c_bands:  1 eigenvalues not converged
     c_bands:  2 eigenvalues not converged
     c_bands:  2 eigenvalues not converged
     c_bands:  2 eigenvalues not converged
     c_bands:  3 eigenvalues not converged
     c_bands:  2 eigenvalues not converged
     c_bands:  1 eigenvalues not converged
     c_bands:  2 eigenvalues not converged
     c_bands:  2 eigenvalues not converged
     c_bands:  1 eigenvalues not converged
     c_bands:  1 eigenvalues not converged
     c_bands:  2 eigenvalues not converged
     ethr =  4.15E-06,  avg # of iterations = 16.6

     total cpu time spent up to now is       63.7 secs

     total energy              =   -1998.57461859 Ry
     estimated scf accuracy    <       0.00252419 Ry

     iteration #  5     ecut=    90.00 Ry     beta= 0.40
     Davidson diagonalization with overlap

---- Real-time Memory Report at c_bands before calling an iterative solver
           194 MiB given to the printing process from OS
             0 MiB allocation reported by mallinfo(arena+hblkhd)
        220241 MiB available memory on the node where the printing process lives
------------------
     c_bands:  1 eigenvalues not converged
     c_bands:  1 eigenvalues not converged
     c_bands:  1 eigenvalues not converged
     c_bands:  1 eigenvalues not converged
     c_bands:  1 eigenvalues not converged
     ethr =  2.43E-06,  avg # of iterations =  9.0

     total cpu time spent up to now is       76.9 secs

     total energy              =   -1998.57491611 Ry
     estimated scf accuracy    <       0.00068718 Ry

     iteration #  6     ecut=    90.00 Ry     beta= 0.40
     Davidson diagonalization with overlap

---- Real-time Memory Report at c_bands before calling an iterative solver
           195 MiB given to the printing process from OS
             0 MiB allocation reported by mallinfo(arena+hblkhd)
        220336 MiB available memory on the node where the printing process lives
------------------
     c_bands:  2 eigenvalues not converged
     ethr =  6.61E-07,  avg # of iterations =  7.3

     total cpu time spent up to now is       91.4 secs

     total energy              =   -1998.57499004 Ry
     estimated scf accuracy    <       0.00067600 Ry

     iteration #  7     ecut=    90.00 Ry     beta= 0.40
     Davidson diagonalization with overlap

---- Real-time Memory Report at c_bands before calling an iterative solver
           195 MiB given to the printing process from OS
             0 MiB allocation reported by mallinfo(arena+hblkhd)
        213986 MiB available memory on the node where the printing process lives
------------------
     c_bands:  2 eigenvalues not converged
     ethr =  6.50E-07,  avg # of iterations =  2.3

     total cpu time spent up to now is      100.7 secs

     total energy              =   -1998.57504300 Ry
     estimated scf accuracy    <       0.00002709 Ry

     iteration #  8     ecut=    90.00 Ry     beta= 0.40
     Davidson diagonalization with overlap

---- Real-time Memory Report at c_bands before calling an iterative solver
           196 MiB given to the printing process from OS
             0 MiB allocation reported by mallinfo(arena+hblkhd)
        220341 MiB available memory on the node where the printing process lives
------------------
     c_bands:  2 eigenvalues not converged
     ethr =  2.60E-08,  avg # of iterations = 10.0

     total cpu time spent up to now is      121.2 secs

     total energy              =   -1998.57508160 Ry
     estimated scf accuracy    <       0.00000929 Ry

     iteration #  9     ecut=    90.00 Ry     beta= 0.40
     Davidson diagonalization with overlap

---- Real-time Memory Report at c_bands before calling an iterative solver
           196 MiB given to the printing process from OS
             0 MiB allocation reported by mallinfo(arena+hblkhd)
        213979 MiB available memory on the node where the printing process lives
------------------
     ethr =  8.93E-09,  avg # of iterations =  5.2

     total cpu time spent up to now is      134.1 secs

     total energy              =   -1998.57508444 Ry
     estimated scf accuracy    <       0.00000625 Ry

     iteration # 10     ecut=    90.00 Ry     beta= 0.40
     Davidson diagonalization with overlap

---- Real-time Memory Report at c_bands before calling an iterative solver
           197 MiB given to the printing process from OS
             0 MiB allocation reported by mallinfo(arena+hblkhd)
        213972 MiB available memory on the node where the printing process lives
------------------
     ethr =  6.01E-09,  avg # of iterations =  1.4

     total cpu time spent up to now is      142.3 secs

     total energy              =   -1998.57508168 Ry
     estimated scf accuracy    <       0.00000489 Ry

     iteration # 11     ecut=    90.00 Ry     beta= 0.40
     Davidson diagonalization with overlap

---- Real-time Memory Report at c_bands before calling an iterative solver
           197 MiB given to the printing process from OS
             0 MiB allocation reported by mallinfo(arena+hblkhd)
        213969 MiB available memory on the node where the printing process lives
------------------
     ethr =  4.70E-09,  avg # of iterations =  5.2

     total cpu time spent up to now is      156.1 secs

     total energy              =   -1998.57508308 Ry
     estimated scf accuracy    <       0.00000865 Ry

     iteration # 12     ecut=    90.00 Ry     beta= 0.40
     Davidson diagonalization with overlap

---- Real-time Memory Report at c_bands before calling an iterative solver
           197 MiB given to the printing process from OS
             0 MiB allocation reported by mallinfo(arena+hblkhd)
        213964 MiB available memory on the node where the printing process lives
------------------
     ethr =  4.70E-09,  avg # of iterations =  2.0

     total cpu time spent up to now is      164.9 secs

     total energy              =   -1998.57508336 Ry
     estimated scf accuracy    <       0.00000207 Ry

     iteration # 13     ecut=    90.00 Ry     beta= 0.40
     Davidson diagonalization with overlap

---- Real-time Memory Report at c_bands before calling an iterative solver
           197 MiB given to the printing process from OS
             0 MiB allocation reported by mallinfo(arena+hblkhd)
        213962 MiB available memory on the node where the printing process lives
------------------
     ethr =  1.99E-09,  avg # of iterations =  3.9

     total cpu time spent up to now is      174.8 secs

     total energy              =   -1998.57508358 Ry
     estimated scf accuracy    <       0.00000037 Ry

     iteration # 14     ecut=    90.00 Ry     beta= 0.40
     Davidson diagonalization with overlap

---- Real-time Memory Report at c_bands before calling an iterative solver
           197 MiB given to the printing process from OS
             0 MiB allocation reported by mallinfo(arena+hblkhd)
        220313 MiB available memory on the node where the printing process lives
------------------
     ethr =  3.57E-10,  avg # of iterations =  8.7

     total cpu time spent up to now is      192.4 secs

     total energy              =   -1998.57508381 Ry
     estimated scf accuracy    <       0.00000007 Ry

     iteration # 15     ecut=    90.00 Ry     beta= 0.40
     Davidson diagonalization with overlap

---- Real-time Memory Report at c_bands before calling an iterative solver
           198 MiB given to the printing process from OS
             0 MiB allocation reported by mallinfo(arena+hblkhd)
        217019 MiB available memory on the node where the printing process lives
------------------
     c_bands:  1 eigenvalues not converged
     ethr =  6.70E-11,  avg # of iterations =  7.9

     total cpu time spent up to now is      209.5 secs

     total energy              =   -1998.57508385 Ry
     estimated scf accuracy    <       0.00000002 Ry

     iteration # 16     ecut=    90.00 Ry     beta= 0.40
     Davidson diagonalization with overlap

---- Real-time Memory Report at c_bands before calling an iterative solver
           198 MiB given to the printing process from OS
             0 MiB allocation reported by mallinfo(arena+hblkhd)
        214798 MiB available memory on the node where the printing process lives
------------------
     c_bands:  1 eigenvalues not converged
     ethr =  2.19E-11,  avg # of iterations =  5.4

     total cpu time spent up to now is      222.3 secs

     End of self-consistent calculation

          k = 0.0000 0.0000 0.0000 ( 28017 PWs)   bands (ev):

   -65.0572 -65.0572 -65.0572 -65.0572 -35.1697 -35.1697 -35.1697 -35.1686
   -35.1686 -35.1686 -35.1686 -35.1686 -35.1686 -35.1680 -35.1680 -35.1680
    -2.7095  -0.6224  -0.6224  -0.6224   1.3510   1.3510   1.3510   1.6063
     1.6063   1.6063   1.8614   1.8614   2.1996   2.1996   2.1996   3.1008
     3.1008   3.1008   3.1008   3.1008   3.1008   3.8346   3.8346   3.8346
     4.4567   4.4567   4.4567   4.5117   4.5117   4.5117   5.4552   5.4552
     5.4552   5.4552   5.4552   5.4552   8.4623   8.4623   8.4623  10.7790
    10.7790  10.7790  12.2784  12.2907  12.2907  12.2908

     occupation numbers 
     1.0000   1.0000   1.0000   1.0000   1.0000   1.0000   1.0000   1.0000
     1.0000   1.0000   1.0000   1.0000   1.0000   1.0000   1.0000   1.0000
     1.0000   1.0000   1.0000   1.0000   1.0000   1.0000   1.0000   1.0000
     1.0000   1.0000   1.0000   1.0000   1.0000   1.0000   1.0000   1.0000
     1.0000   1.0000   1.0000   1.0000   1.0000   1.0000   1.0000   1.0000
     1.0000   1.0000   1.0000   1.0000   1.0000   1.0000   1.0000   1.0000
     1.0000   1.0000   1.0000   1.0000   0.0000   0.0000   0.0000   0.0000
     0.0000   0.0000   0.0000   0.0000   0.0000   0.0000

          k = 0.0000 0.0000 0.0833 ( 27933 PWs)   bands (ev):

   -65.0572 -65.0572 -65.0572 -65.0572 -35.1697 -35.1697 -35.1697 -35.1686
   -35.1686 -35.1686 -35.1686 -35.1686 -35.1686 -35.1680 -35.1680 -35.1680
    -2.6856  -0.6741  -0.6000  -0.6000   1.1445   1.3668   1.3668   1.5484
     1.5484   1.8312   1.8669   1.9005   2.1459   2.1459   2.1935   2.9980
     2.9980   3.1110   3.1110   3.1938   3.1938   3.8450   3.9407   3.9407
     4.2896   4.2896   4.4548   4.4988   4.6756   4.6756   5.4465   5.4465
     5.4548   5.4548   5.4552   5.4552   8.4617   8.5145   8.5145  10.7850
    10.7916  10.7916  11.9664  12.1992  12.2637  12.2637

     occupation numbers 
     1.0000   1.0000   1.0000   1.0000   1.0000   1.0000   1.0000   1.0000
     1.0000   1.0000   1.0000   1.0000   1.0000   1.0000   1.0000   1.0000
     1.0000   1.0000   1.0000   1.0000   1.0000   1.0000   1.0000   1.0000
     1.0000   1.0000   1.0000   1.0000   1.0000   1.0000   1.0000   1.0000
     1.0000   1.0000   1.0000   1.0000   1.0000   1.0000   1.0000   1.0000
     1.0000   1.0000   1.0000   1.0000   1.0000   1.0000   1.0000   1.0000
     1.0000   1.0000   1.0000   1.0000   0.0000   0.0000   0.0000   0.0000
     0.0000   0.0000   0.0000   0.0000   0.0000   0.0000

          k = 0.0000 0.0000 0.1667 ( 27913 PWs)   bands (ev):

   -65.0572 -65.0572 -65.0572 -65.0572 -35.1696 -35.1696 -35.1696 -35.1687
   -35.1687 -35.1686 -35.1686 -35.1686 -35.1686 -35.1681 -35.1681 -35.1681
    -2.6139  -0.8262  -0.5335  -0.5335   0.9612   1.3738   1.3738   1.4141
     1.4141   1.7452   1.8828   2.0655   2.0655   2.1756   2.3394   2.7838
     2.7838   3.1418   3.1418   3.3919   3.3919   3.8756   4.1015   4.1015
     4.1637   4.1637   4.4441   4.4613   4.8538   4.8538   5.4194   5.4194
     5.4528   5.4528   5.4553   5.4553   8.4668   8.6710   8.6710  10.8033
    10.8327  10.8327  11.4290  11.6982  12.2252  12.7438

     occupation numbers 
     1.0000   1.0000   1.0000   1.0000   1.0000   1.0000   1.0000   1.0000
     1.0000   1.0000   1.0000   1.0000   1.0000   1.0000   1.0000   1.0000
     1.0000   1.0000   1.0000   1.0000   1.0000   1.0000   1.0000   1.0000
     1.0000   1.0000   1.0000   1.0000   1.0000   1.0000   1.0000   1.0000
     1.0000   1.0000   1.0000   1.0000   1.0000   1.0000   1.0000   1.0000
     1.0000   1.0000   1.0000   1.0000   1.0000   1.0000   1.0000   1.0000
     1.0000   1.0000   1.0000   1.0000   0.0000   0.0000   0.0000   0.0000
     0.0000   0.0000   0.0000   0.0000   0.0000   0.0000

          k = 0.0000 0.0000 0.2500 ( 27926 PWs)   bands (ev):

   -65.0572 -65.0572 -65.0572 -65.0572 -35.1695 -35.1695 -35.1695 -35.1688
   -35.1688 -35.1686 -35.1686 -35.1685 -35.1685 -35.1683 -35.1681 -35.1681
    -2.4957  -1.0585  -0.4255  -0.4255   0.8919   1.1189   1.1189   1.4926
     1.4926   1.6162   1.9084   2.0194   2.0194   2.1474   2.5461   2.5461
     2.8000   3.1932   3.1932   3.5963   3.5963   3.9216   3.9216   3.9249
     4.4025   4.4101   4.4118   4.4118   5.0150   5.0150   5.3705   5.3705
     5.4458   5.4458   5.4553   5.4553   8.4974   8.9287   8.9287  10.6896
    10.8353  10.9110  10.9110  11.4759  12.4655  12.4658

     occupation numbers 
     1.0000   1.0000   1.0000   1.0000   1.0000   1.0000   1.0000   1.0000
     1.0000   1.0000   1.0000   1.0000   1.0000   1.0000   1.0000   1.0000
     1.0000   1.0000   1.0000   1.0000   1.0000   1.0000   1.0000   1.0000
     1.0000   1.0000   1.0000   1.0000   1.0000   1.0000   1.0000   1.0000
     1.0000   1.0000   1.0000   1.0000   1.0000   1.0000   1.0000   1.0000
     1.0000   1.0000   1.0000   1.0000   1.0000   1.0000   1.0000   1.0000
     1.0000   1.0000   1.0000   1.0000   0.0000   0.0000   0.0000   0.0000
     0.0000   0.0000   0.0000   0.0000   0.0000   0.0000

          k = 0.0000 0.0000 0.3333 ( 27914 PWs)   bands (ev):

   -65.0572 -65.0572 -65.0572 -65.0572 -35.1694 -35.1694 -35.1693 -35.1689
   -35.1689 -35.1686 -35.1686 -35.1685 -35.1685 -35.1684 -35.1682 -35.1682
    -2.3328  -1.3340  -0.2825  -0.2825   0.8422   0.8422   0.9167   1.4608
     1.6016   1.6016   1.9422   1.9981   1.9981   2.1111   2.3142   2.3142
     3.2441   3.2653   3.2653   3.7547   3.7547   3.7604   3.7604   3.9904
     4.3277   4.3323   4.6509   4.6509   5.1523   5.1523   5.2951   5.2951
     5.4290   5.4290   5.4554   5.4554   8.5830   9.2740   9.2740  10.0275
    10.8827  11.0378  11.0378  11.2949  12.1222  12.1231

     occupation numbers 
     1.0000   1.0000   1.0000   1.0000   1.0000   1.0000   1.0000   1.0000
     1.0000   1.0000   1.0000   1.0000   1.0000   1.0000   1.0000   1.0000
     1.0000   1.0000   1.0000   1.0000   1.0000   1.0000   1.0000   1.0000
     1.0000   1.0000   1.0000   1.0000   1.0000   1.0000   1.0000   1.0000
     1.0000   1.0000   1.0000   1.0000   1.0000   1.0000   1.0000   1.0000
     1.0000   1.0000   1.0000   1.0000   1.0000   1.0000   1.0000   1.0000
     1.0000   1.0000   1.0000   1.0000   0.0000   0.0000   0.0000   0.0000
     0.0000   0.0000   0.0000   0.0000   0.0000   0.0000

          k = 0.0000 0.0000 0.4167 ( 27874 PWs)   bands (ev):

   -65.0572 -65.0572 -65.0572 -65.0571 -35.1693 -35.1693 -35.1691 -35.1690
   -35.1690 -35.1686 -35.1686 -35.1686 -35.1684 -35.1684 -35.1682 -35.1682
    -2.1284  -1.6180  -0.1249  -0.1249   0.5954   0.5954   1.0070   1.2963
     1.7401   1.7401   1.9820   1.9889   1.9889   2.0694   2.0991   2.0991
     3.3581   3.3581   3.6038   3.6038   3.6391   3.8642   3.8642   4.0684
     4.1876   4.2429   4.8648   4.8648   5.1880   5.1880   5.2618   5.2618
     5.3966   5.3966   5.4555   5.4555   8.7569   9.4736   9.6558   9.6558
    10.9485  11.1501  11.2232  11.2232  11.4164  11.7781

     occupation numbers 
     1.0000   1.0000   1.0000   1.0000   1.0000   1.0000   1.0000   1.0000
     1.0000   1.0000   1.0000   1.0000   1.0000   1.0000   1.0000   1.0000
     1.0000   1.0000   1.0000   1.0000   1.0000   1.0000   1.0000   1.0000
     1.0000   1.0000   1.0000   1.0000   1.0000   1.0000   1.0000   1.0000
     1.0000   1.0000   1.0000   1.0000   1.0000   1.0000   1.0000   1.0000
     1.0000   1.0000   1.0000   1.0000   1.0000   1.0000   1.0000   1.0000
     1.0000   1.0000   1.0000   1.0000   0.0000   0.0000   0.0000   0.0000
     0.0000   0.0000   0.0000   0.0000   0.0000   0.0000

          k = 0.0000 0.0000-0.5000 ( 27846 PWs)   bands (ev):

   -65.0572 -65.0572 -65.0572 -65.0571 -35.1692 -35.1692 -35.1692 -35.1692
   -35.1689 -35.1689 -35.1686 -35.1686 -35.1683 -35.1683 -35.1683 -35.1683
    -1.8874  -1.8874  -0.0347  -0.0347   0.4742   0.4742   1.1396   1.1396
     1.9067   1.9067   1.9067   1.9067   1.9864   1.9864   2.0253   2.0253
     3.4711   3.4711   3.4711   3.4711   3.8994   3.8994   3.9581   3.9581
     4.1544   4.1544   5.0449   5.0449   5.0449   5.0449   5.3424   5.3424
     5.3424   5.3424   5.4555   5.4555   9.0486   9.0486   9.8728   9.8728
    11.0362  11.0362  11.1287  11.1287  11.4716  11.4716

     occupation numbers 
     1.0000   1.0000   1.0000   1.0000   1.0000   1.0000   1.0000   1.0000
     1.0000   1.0000   1.0000   1.0000   1.0000   1.0000   1.0000   1.0000
     1.0000   1.0000   1.0000   1.0000   1.0000   1.0000   1.0000   1.0000
     1.0000   1.0000   1.0000   1.0000   1.0000   1.0000   1.0000   1.0000
     1.0000   1.0000   1.0000   1.0000   1.0000   1.0000   1.0000   1.0000
     1.0000   1.0000   1.0000   1.0000   1.0000   1.0000   1.0000   1.0000
     1.0000   1.0000   1.0000   1.0000   0.0000   0.0000   0.0000   0.0000
     0.0000   0.0000   0.0000   0.0000   0.0000   0.0000

          k = 0.0000 0.0833 0.0833 ( 27923 PWs)   bands (ev):

   -65.0572 -65.0572 -65.0572 -65.0572 -35.1697 -35.1697 -35.1697 -35.1687
   -35.1686 -35.1686 -35.1686 -35.1686 -35.1686 -35.1681 -35.1680 -35.1680
    -2.6616  -0.6514  -0.6514  -0.5776   1.1408   1.1408   1.3826   1.4908
     1.8202   1.8513   1.8513   1.8534   2.0883   2.1459   2.1459   2.9558
     3.0089   3.0089   3.2083   3.2083   3.2574   3.9503   3.9503   4.0205
     4.1662   4.1897   4.5283   4.5299   4.7203   4.7306   5.4406   5.4465
     5.4465   5.4528   5.4548   5.4548   8.5132   8.5132   8.5633  10.7975
    10.7975  10.8056  11.8351  12.0926  12.1630  12.2957

     occupation numbers 
     1.0000   1.0000   1.0000   1.0000   1.0000   1.0000   1.0000   1.0000
     1.0000   1.0000   1.0000   1.0000   1.0000   1.0000   1.0000   1.0000
     1.0000   1.0000   1.0000   1.0000   1.0000   1.0000   1.0000   1.0000
     1.0000   1.0000   1.0000   1.0000   1.0000   1.0000   1.0000   1.0000
     1.0000   1.0000   1.0000   1.0000   1.0000   1.0000   1.0000   1.0000
     1.0000   1.0000   1.0000   1.0000   1.0000   1.0000   1.0000   1.0000
     1.0000   1.0000   1.0000   1.0000   0.0000   0.0000   0.0000   0.0000
     0.0000   0.0000   0.0000   0.0000   0.0000   0.0000

          k = 0.0000 0.0833 0.1667 ( 27904 PWs)   bands (ev):

   -65.0572 -65.0572 -65.0572 -65.0572 -35.1696 -35.1696 -35.1696 -35.1687
   -35.1687 -35.1686 -35.1686 -35.1686 -35.1686 -35.1682 -35.1681 -35.1680
    -2.5900  -0.8029  -0.5838  -0.5112   0.9565   1.1115   1.3163   1.4298
     1.7115   1.7433   1.8609   1.9954   2.0991   2.1020   2.2992   2.7957
     2.8068   3.0415   3.2563   3.4131   3.4435   3.9786   3.9838   4.0190
     4.1718   4.2064   4.5154   4.5591   4.8565   4.8680   5.4153   5.4201
     5.4452   5.4517   5.4525   5.4546   8.5162   8.6674   8.7094  10.8156
    10.8384  10.8510  11.4302  11.6287  12.0518  12.7145

     occupation numbers 
     1.0000   1.0000   1.0000   1.0000   1.0000   1.0000   1.0000   1.0000
     1.0000   1.0000   1.0000   1.0000   1.0000   1.0000   1.0000   1.0000
     1.0000   1.0000   1.0000   1.0000   1.0000   1.0000   1.0000   1.0000
     1.0000   1.0000   1.0000   1.0000   1.0000   1.0000   1.0000   1.0000
     1.0000   1.0000   1.0000   1.0000   1.0000   1.0000   1.0000   1.0000
     1.0000   1.0000   1.0000   1.0000   1.0000   1.0000   1.0000   1.0000
     1.0000   1.0000   1.0000   1.0000   0.0000   0.0000   0.0000   0.0000
     0.0000   0.0000   0.0000   0.0000   0.0000   0.0000

          k = 0.0000 0.0833 0.2500 ( 27925 PWs)   bands (ev):

   -65.0572 -65.0572 -65.0572 -65.0572 -35.1695 -35.1695 -35.1694 -35.1688
   -35.1688 -35.1686 -35.1686 -35.1685 -35.1685 -35.1683 -35.1681 -35.1681
    -2.4719  -1.0350  -0.4735  -0.4033   0.8885   0.9993   1.0597   1.5081
     1.5996   1.6171   1.8834   1.9280   2.0907   2.0917   2.5589   2.6220
     2.6910   3.0958   3.3575   3.6233   3.6472   3.8050   3.8430   4.0243
     4.4184   4.4308   4.4664   4.5341   5.0133   5.0175   5.3676   5.3723
     5.4396   5.4451   5.4517   5.4543   8.5434   8.9210   8.9497  10.7025
    10.8468  10.9164  10.9371  11.4388  12.0470  12.3599

     occupation numbers 
     1.0000   1.0000   1.0000   1.0000   1.0000   1.0000   1.0000   1.0000
     1.0000   1.0000   1.0000   1.0000   1.0000   1.0000   1.0000   1.0000
     1.0000   1.0000   1.0000   1.0000   1.0000   1.0000   1.0000   1.0000
     1.0000   1.0000   1.0000   1.0000   1.0000   1.0000   1.0000   1.0000
     1.0000   1.0000   1.0000   1.0000   1.0000   1.0000   1.0000   1.0000
     1.0000   1.0000   1.0000   1.0000   1.0000   1.0000   1.0000   1.0000
     1.0000   1.0000   1.0000   1.0000   0.0000   0.0000   0.0000   0.0000
     0.0000   0.0000   0.0000   0.0000   0.0000   0.0000

          k = 0.0000 0.0833 0.3333 ( 27912 PWs)   bands (ev):

   -65.0572 -65.0572 -65.0572 -65.0572 -35.1694 -35.1694 -35.1693 -35.1689
   -35.1689 -35.1686 -35.1686 -35.1685 -35.1685 -35.1685 -35.1682 -35.1681
    -2.3091  -1.3104  -0.3256  -0.2605   0.7797   0.7899   0.9150   1.4629
     1.5944   1.6169   1.8732   1.9139   2.0619   2.1062   2.3276   2.4464
     3.0007   3.1715   3.5540   3.6388   3.6754   3.7924   3.8099   4.0850
     4.3984   4.4611   4.6557   4.6587   5.1511   5.1522   5.2934   5.2980
     5.4248   5.4279   5.4520   5.4540   8.6243   9.2590   9.2705  10.0463
    10.8929  11.0429  11.0757  11.2777  11.8411  12.1192

     occupation numbers 
     1.0000   1.0000   1.0000   1.0000   1.0000   1.0000   1.0000   1.0000
     1.0000   1.0000   1.0000   1.0000   1.0000   1.0000   1.0000   1.0000
     1.0000   1.0000   1.0000   1.0000   1.0000   1.0000   1.0000   1.0000
     1.0000   1.0000   1.0000   1.0000   1.0000   1.0000   1.0000   1.0000
     1.0000   1.0000   1.0000   1.0000   1.0000   1.0000   1.0000   1.0000
     1.0000   1.0000   1.0000   1.0000   1.0000   1.0000   1.0000   1.0000
     1.0000   1.0000   1.0000   1.0000   0.0000   0.0000   0.0000   0.0000
     0.0000   0.0000   0.0000   0.0000   0.0000   0.0000

          k = 0.0000 0.0833 0.4167 ( 27876 PWs)   bands (ev):

   -65.0572 -65.0572 -65.0572 -65.0572 -35.1693 -35.1693 -35.1691 -35.1690
   -35.1690 -35.1687 -35.1686 -35.1686 -35.1684 -35.1684 -35.1682 -35.1682
    -2.1047  -1.5944  -0.1558  -0.1047   0.5296   0.5598   1.0070   1.2985
     1.6539   1.7551   1.8114   1.9497   2.0267   2.1132   2.1402   2.3027
     3.1963   3.2683   3.4862   3.5218   3.8370   3.9007   3.9100   4.1575
     4.3199   4.3247   4.8679   4.8690   5.1877   5.1915   5.2595   5.2625
     5.3945   5.3949   5.4525   5.4535   8.7926   9.4978   9.6229   9.6266
    10.9562  11.1454  11.2276  11.2749  11.3364  11.4159

     occupation numbers 
     1.0000   1.0000   1.0000   1.0000   1.0000   1.0000   1.0000   1.0000
     1.0000   1.0000   1.0000   1.0000   1.0000   1.0000   1.0000   1.0000
     1.0000   1.0000   1.0000   1.0000   1.0000   1.0000   1.0000   1.0000
     1.0000   1.0000   1.0000   1.0000   1.0000   1.0000   1.0000   1.0000
     1.0000   1.0000   1.0000   1.0000   1.0000   1.0000   1.0000   1.0000
     1.0000   1.0000   1.0000   1.0000   1.0000   1.0000   1.0000   1.0000
     1.0000   1.0000   1.0000   1.0000   0.0000   0.0000   0.0000   0.0000
     0.0000   0.0000   0.0000   0.0000   0.0000   0.0000

          k = 0.0000 0.0833-0.5000 ( 27888 PWs)   bands (ev):

   -65.0572 -65.0572 -65.0572 -65.0572 -35.1692 -35.1692 -35.1691 -35.1691
   -35.1689 -35.1689 -35.1686 -35.1686 -35.1683 -35.1683 -35.1683 -35.1683
    -1.8637  -1.8637  -0.0341  -0.0341   0.4205   0.4205   1.1410   1.1410
     1.7349   1.7349   1.9212   1.9212   1.9882   1.9882   2.2018   2.2018
     3.3436   3.3436   3.3855   3.3855   3.9406   3.9406   4.1131   4.1131
     4.2376   4.2376   5.0462   5.0462   5.0486   5.0486   5.3402   5.3402
     5.3423   5.3423   5.4530   5.4530   9.0784   9.0784   9.8240   9.8240
    11.0393  11.0393  11.1099  11.1099  11.4749  11.4750

     occupation numbers 
     1.0000   1.0000   1.0000   1.0000   1.0000   1.0000   1.0000   1.0000
     1.0000   1.0000   1.0000   1.0000   1.0000   1.0000   1.0000   1.0000
     1.0000   1.0000   1.0000   1.0000   1.0000   1.0000   1.0000   1.0000
     1.0000   1.0000   1.0000   1.0000   1.0000   1.0000   1.0000   1.0000
     1.0000   1.0000   1.0000   1.0000   1.0000   1.0000   1.0000   1.0000
     1.0000   1.0000   1.0000   1.0000   1.0000   1.0000   1.0000   1.0000
     1.0000   1.0000   1.0000   1.0000   0.0000   0.0000   0.0000   0.0000
     0.0000   0.0000   0.0000   0.0000   0.0000   0.0000

          k = 0.0000 0.1667 0.1667 ( 27945 PWs)   bands (ev):

   -65.0572 -65.0572 -65.0572 -65.0572 -35.1696 -35.1695 -35.1695 -35.1688
   -35.1686 -35.1686 -35.1686 -35.1686 -35.1685 -35.1683 -35.1681 -35.1680
    -2.5186  -0.7335  -0.7335  -0.4449   0.9336   0.9336   1.1434   1.4767
     1.7165   1.8187   1.8772   1.8944   1.8944   2.2875   2.2875   2.7918
     2.8313   2.8313   3.4845   3.4845   3.6009   3.7900   3.8563   4.1958
     4.1958   4.3212   4.5770   4.7196   4.8834   4.9267   5.3972   5.4212
     5.4212   5.4454   5.4516   5.4516   8.6639   8.6639   8.8244  10.8557
    10.8557  10.9095  11.4394  11.4484  11.4934  12.3132

     occupation numbers 
     1.0000   1.0000   1.0000   1.0000   1.0000   1.0000   1.0000   1.0000
     1.0000   1.0000   1.0000   1.0000   1.0000   1.0000   1.0000   1.0000
     1.0000   1.0000   1.0000   1.0000   1.0000   1.0000   1.0000   1.0000
     1.0000   1.0000   1.0000   1.0000   1.0000   1.0000   1.0000   1.0000
     1.0000   1.0000   1.0000   1.0000   1.0000   1.0000   1.0000   1.0000
     1.0000   1.0000   1.0000   1.0000   1.0000   1.0000   1.0000   1.0000
     1.0000   1.0000   1.0000   1.0000   0.0000   0.0000   0.0000   0.0000
     0.0000   0.0000   0.0000   0.0000   0.0000   0.0000

          k = 0.0000 0.1667 0.2500 ( 27923 PWs)   bands (ev):

   -65.0572 -65.0572 -65.0572 -65.0572 -35.1695 -35.1695 -35.1694 -35.1689
   -35.1687 -35.1686 -35.1686 -35.1685 -35.1685 -35.1684 -35.1681 -35.1681
    -2.4006  -0.9646  -0.6193  -0.3373   0.8635   0.8724   0.8863   1.5545
     1.6165   1.6933   1.7851   1.8124   1.9257   2.3036   2.5860   2.5969
     2.7141   2.8902   3.6036   3.6268   3.6789   3.7119   3.7992   4.2345
     4.4376   4.4856   4.5785   4.7546   5.0053   5.0328   5.3558   5.3767
     5.4195   5.4424   5.4432   5.4503   8.6806   8.9056   9.0141  10.7445
    10.8851  10.9326  11.0177  11.3584  11.4903  12.1842

     occupation numbers 
     1.0000   1.0000   1.0000   1.0000   1.0000   1.0000   1.0000   1.0000
     1.0000   1.0000   1.0000   1.0000   1.0000   1.0000   1.0000   1.0000
     1.0000   1.0000   1.0000   1.0000   1.0000   1.0000   1.0000   1.0000
     1.0000   1.0000   1.0000   1.0000   1.0000   1.0000   1.0000   1.0000
     1.0000   1.0000   1.0000   1.0000   1.0000   1.0000   1.0000   1.0000
     1.0000   1.0000   1.0000   1.0000   1.0000   1.0000   1.0000   1.0000
     1.0000   1.0000   1.0000   1.0000   0.0000   0.0000   0.0000   0.0000
     0.0000   0.0000   0.0000   0.0000   0.0000   0.0000

          k = 0.0000 0.1667 0.3333 ( 27910 PWs)   bands (ev):

   -65.0572 -65.0572 -65.0572 -65.0572 -35.1694 -35.1694 -35.1693 -35.1690
   -35.1688 -35.1686 -35.1685 -35.1685 -35.1685 -35.1684 -35.1682 -35.1681
    -2.2380  -1.2399  -0.4632  -0.1954   0.6024   0.7168   0.9059   1.4690
     1.5827   1.6625   1.7130   1.8289   1.9193   2.3346   2.3678   2.6152
     2.8348   2.9720   3.4378   3.5059   3.8525   3.8948   3.9598   4.2859
     4.5388   4.6699   4.6803   4.6974   5.1497   5.1504   5.2868   5.3055
     5.4100   5.4245   5.4421   5.4486   8.7476   9.2234   9.2681  10.1045
    10.9273  11.0575  11.1861  11.2399  11.5864  11.6442

     occupation numbers 
     1.0000   1.0000   1.0000   1.0000   1.0000   1.0000   1.0000   1.0000
     1.0000   1.0000   1.0000   1.0000   1.0000   1.0000   1.0000   1.0000
     1.0000   1.0000   1.0000   1.0000   1.0000   1.0000   1.0000   1.0000
     1.0000   1.0000   1.0000   1.0000   1.0000   1.0000   1.0000   1.0000
     1.0000   1.0000   1.0000   1.0000   1.0000   1.0000   1.0000   1.0000
     1.0000   1.0000   1.0000   1.0000   1.0000   1.0000   1.0000   1.0000
     1.0000   1.0000   1.0000   1.0000   0.0000   0.0000   0.0000   0.0000
     0.0000   0.0000   0.0000   0.0000   0.0000   0.0000

          k = 0.0000 0.1667 0.4167 ( 27902 PWs)   bands (ev):

   -65.0572 -65.0572 -65.0572 -65.0572 -35.1693 -35.1692 -35.1691 -35.1691
   -35.1690 -35.1688 -35.1685 -35.1685 -35.1685 -35.1683 -35.1683 -35.1682
    -2.0338  -1.5239  -0.2722  -0.0497   0.3535   0.5142   1.0042   1.3046
     1.5629   1.6492   1.7997   1.8523   1.9010   2.1552   2.3801   2.5209
     3.0134   3.0760   3.2913   3.3451   4.0159   4.0508   4.1254   4.3468
     4.4798   4.5749   4.8767   4.8799   5.1861   5.2009   5.2541   5.2629
     5.3861   5.3900   5.4431   5.4467   8.8995   9.5470   9.5548   9.5710
    10.9832  11.1388  11.2014  11.2399  11.3444  11.4639

     occupation numbers 
     1.0000   1.0000   1.0000   1.0000   1.0000   1.0000   1.0000   1.0000
     1.0000   1.0000   1.0000   1.0000   1.0000   1.0000   1.0000   1.0000
     1.0000   1.0000   1.0000   1.0000   1.0000   1.0000   1.0000   1.0000
     1.0000   1.0000   1.0000   1.0000   1.0000   1.0000   1.0000   1.0000
     1.0000   1.0000   1.0000   1.0000   1.0000   1.0000   1.0000   1.0000
     1.0000   1.0000   1.0000   1.0000   1.0000   1.0000   1.0000   1.0000
     1.0000   1.0000   1.0000   1.0000   0.0000   0.0000   0.0000   0.0000
     0.0000   0.0000   0.0000   0.0000   0.0000   0.0000

          k = 0.0000 0.1667-0.5000 ( 27860 PWs)   bands (ev):

   -65.0572 -65.0572 -65.0572 -65.0572 -35.1692 -35.1692 -35.1691 -35.1691
   -35.1690 -35.1690 -35.1685 -35.1685 -35.1684 -35.1684 -35.1683 -35.1683
    -1.7931  -1.7931  -0.0760  -0.0760   0.3266   0.3266   1.1436   1.1436
     1.5947   1.5947   1.8775   1.8775   1.9647   1.9647   2.4418   2.4418
     3.1555   3.1555   3.2009   3.2009   4.0688   4.0688   4.3807   4.3807
     4.4133   4.4133   5.0498   5.0498   5.0583   5.0583   5.3343   5.3343
     5.3398   5.3398   5.4448   5.4448   9.1680   9.1680   9.7108   9.7108
    11.0535  11.0535  11.0632  11.0633  11.4831  11.4831

     occupation numbers 
     1.0000   1.0000   1.0000   1.0000   1.0000   1.0000   1.0000   1.0000
     1.0000   1.0000   1.0000   1.0000   1.0000   1.0000   1.0000   1.0000
     1.0000   1.0000   1.0000   1.0000   1.0000   1.0000   1.0000   1.0000
     1.0000   1.0000   1.0000   1.0000   1.0000   1.0000   1.0000   1.0000
     1.0000   1.0000   1.0000   1.0000   1.0000   1.0000   1.0000   1.0000
     1.0000   1.0000   1.0000   1.0000   1.0000   1.0000   1.0000   1.0000
     1.0000   1.0000   1.0000   1.0000   0.0000   0.0000   0.0000   0.0000
     0.0000   0.0000   0.0000   0.0000   0.0000   0.0000

          k = 0.0000 0.2500 0.2500 ( 27891 PWs)   bands (ev):

   -65.0572 -65.0572 -65.0572 -65.0572 -35.1694 -35.1694 -35.1694 -35.1690
   -35.1687 -35.1687 -35.1686 -35.1685 -35.1685 -35.1685 -35.1682 -35.1681
    -2.2829  -0.8486  -0.8486  -0.2305   0.6312   0.8243   0.8243   1.5915
     1.6314   1.6772   1.7222   1.7222   1.7235   2.5536   2.5536   2.6600
     2.6600   2.7382   3.4152   3.4950   3.8776   3.8776   4.0094   4.4684
     4.4684   4.5762   4.6545   4.9542   4.9928   5.0796   5.3268   5.3805
     5.3805   5.4325   5.4402   5.4402   8.9041   8.9041   9.1258  10.7991
    10.8482  10.9591  10.9591  11.1586  11.2758  12.2672

     occupation numbers 
     1.0000   1.0000   1.0000   1.0000   1.0000   1.0000   1.0000   1.0000
     1.0000   1.0000   1.0000   1.0000   1.0000   1.0000   1.0000   1.0000
     1.0000   1.0000   1.0000   1.0000   1.0000   1.0000   1.0000   1.0000
     1.0000   1.0000   1.0000   1.0000   1.0000   1.0000   1.0000   1.0000
     1.0000   1.0000   1.0000   1.0000   1.0000   1.0000   1.0000   1.0000
     1.0000   1.0000   1.0000   1.0000   1.0000   1.0000   1.0000   1.0000
     1.0000   1.0000   1.0000   1.0000   0.0000   0.0000   0.0000   0.0000
     0.0000   0.0000   0.0000   0.0000   0.0000   0.0000

          k = 0.0000 0.2500 0.3333 ( 27904 PWs)   bands (ev):

[...]
     atom    8 type  2   force =    -0.00000000   -0.00000000    0.00000000
     atom    9 type  1   force =    -0.00000000   -0.00000000   -2.45700671
     atom   10 type  1   force =    -0.00000000    2.45700671    0.00000000
     atom   11 type  1   force =     2.45700671   -0.00000000    0.00000000
     atom   12 type  1   force =    -0.00000000   -0.00000000    2.45700671
     atom   13 type  1   force =     0.00000000   -2.45700671   -0.00000000
     atom   14 type  1   force =    -2.45700671    0.00000000    0.00000000
     atom   15 type  1   force =    -0.00000000    0.00000000   -2.45700671
     atom   16 type  1   force =    -0.00000000    2.45700671   -0.00000000
     atom   17 type  1   force =     2.45700671   -0.00000000   -0.00000000
     atom   18 type  1   force =    -0.00000000    0.00000000    2.45700671
     atom   19 type  1   force =     0.00000000   -2.45700671    0.00000000
     atom   20 type  1   force =    -2.45700671    0.00000000   -0.00000000
     atom   21 type  1   force =     0.00000000   -0.00000000   -2.45700671
     atom   22 type  1   force =     0.00000000    2.45700671   -0.00000000
     atom   23 type  1   force =     2.45700671   -0.00000000   -0.00000000
     atom   24 type  1   force =     0.00000000   -0.00000000    2.45700671
     atom   25 type  1   force =     0.00000000   -2.45700671   -0.00000000
     atom   26 type  1   force =    -2.45700671    0.00000000   -0.00000000
     atom   27 type  1   force =    -0.00000000   -0.00000000   -2.45700671
     atom   28 type  1   force =    -0.00000000    2.45700671    0.00000000
     atom   29 type  1   force =     2.45700671   -0.00000000    0.00000000
     atom   30 type  1   force =     0.00000000    0.00000000    2.45700671
     atom   31 type  1   force =     0.00000000   -2.45700671   -0.00000000
     atom   32 type  1   force =    -2.45700671    0.00000000   -0.00000000
     atom   33 type  3   force =    -0.00000000   -0.00000000   -0.00000000
     atom   34 type  3   force =    -0.00000000    0.00000000    0.00000000
     atom   35 type  3   force =     0.00000000   -0.00000000    0.00000000
     atom   36 type  3   force =     0.00000000    0.00000000   -0.00000000
     The local contribution  to forces
     atom    1 type  2   force =    -0.00000009    0.00000009   -0.00000009
     atom    2 type  2   force =     0.00000009    0.00000009   -0.00000009
     atom    3 type  2   force =    -0.00000009   -0.00000009    0.00000009
     atom    4 type  2   force =     0.00000009   -0.00000009    0.00000009
     atom    5 type  2   force =     0.00000009    0.00000009    0.00000009
     atom    6 type  2   force =    -0.00000009    0.00000009    0.00000009
     atom    7 type  2   force =     0.00000009   -0.00000009   -0.00000009
     atom    8 type  2   force =    -0.00000009   -0.00000009   -0.00000009
     atom    9 type  1   force =    -0.00000000   -0.00000000    2.43090835
     atom   10 type  1   force =     0.00000000   -2.43090759   -0.00000000
     atom   11 type  1   force =    -2.43090759   -0.00000000   -0.00000000
     atom   12 type  1   force =     0.00000000    0.00000000   -2.43090835
     atom   13 type  1   force =    -0.00000000    2.43090835   -0.00000000
     atom   14 type  1   force =     2.43090759    0.00000000    0.00000000
     atom   15 type  1   force =    -0.00000000    0.00000000    2.43090759
     atom   16 type  1   force =     0.00000000   -2.43090835    0.00000000
     atom   17 type  1   force =    -2.43090759    0.00000000    0.00000000
     atom   18 type  1   force =     0.00000000   -0.00000000   -2.43090759
     atom   19 type  1   force =    -0.00000000    2.43090759    0.00000000
     atom   20 type  1   force =     2.43090759   -0.00000000   -0.00000000
     atom   21 type  1   force =     0.00000000   -0.00000000    2.43090759
     atom   22 type  1   force =     0.00000000   -2.43090759    0.00000000
     atom   23 type  1   force =    -2.43090835   -0.00000000    0.00000000
     atom   24 type  1   force =    -0.00000000    0.00000000   -2.43090759
     atom   25 type  1   force =     0.00000000    2.43090762    0.00000000
     atom   26 type  1   force =     2.43090835    0.00000000   -0.00000000
     atom   27 type  1   force =     0.00000000    0.00000000    2.43090762
     atom   28 type  1   force =    -0.00000000   -2.43090762    0.00000000
     atom   29 type  1   force =    -2.43090762   -0.00000000    0.00000000
     atom   30 type  1   force =     0.00000000    0.00000000   -2.43090762
     atom   31 type  1   force =    -0.00000000    2.43090759   -0.00000000
     atom   32 type  1   force =     2.43090762    0.00000000    0.00000000
     atom   33 type  3   force =     0.00000000    0.00000000    0.00000000
     atom   34 type  3   force =     0.00000000    0.00000000    0.00000000
     atom   35 type  3   force =     0.00000000    0.00000000    0.00000000
     atom   36 type  3   force =     0.00000000    0.00000000    0.00000000
     The core correction contribution to forces
     atom    1 type  2   force =     0.00000000   -0.00000000    0.00000000
     atom    2 type  2   force =    -0.00000000   -0.00000000    0.00000000
     atom    3 type  2   force =     0.00000000    0.00000000   -0.00000000
     atom    4 type  2   force =    -0.00000000    0.00000000   -0.00000000
     atom    5 type  2   force =    -0.00000000   -0.00000000   -0.00000000
     atom    6 type  2   force =     0.00000000   -0.00000000   -0.00000000
     atom    7 type  2   force =    -0.00000000    0.00000000    0.00000000
     atom    8 type  2   force =     0.00000000    0.00000000    0.00000000
     atom    9 type  1   force =     0.00000000    0.00000000    0.00000000
     atom   10 type  1   force =     0.00000000    0.00000000    0.00000000
     atom   11 type  1   force =     0.00000000    0.00000000    0.00000000
     atom   12 type  1   force =     0.00000000    0.00000000    0.00000000
     atom   13 type  1   force =     0.00000000    0.00000000    0.00000000
     atom   14 type  1   force =     0.00000000    0.00000000    0.00000000
     atom   15 type  1   force =     0.00000000    0.00000000    0.00000000
     atom   16 type  1   force =     0.00000000    0.00000000    0.00000000
     atom   17 type  1   force =     0.00000000    0.00000000    0.00000000
     atom   18 type  1   force =     0.00000000    0.00000000    0.00000000
     atom   19 type  1   force =     0.00000000    0.00000000    0.00000000
     atom   20 type  1   force =     0.00000000    0.00000000    0.00000000
     atom   21 type  1   force =     0.00000000    0.00000000    0.00000000
     atom   22 type  1   force =     0.00000000    0.00000000    0.00000000
     atom   23 type  1   force =     0.00000000    0.00000000    0.00000000
     atom   24 type  1   force =     0.00000000    0.00000000    0.00000000
     atom   25 type  1   force =     0.00000000    0.00000000    0.00000000
     atom   26 type  1   force =     0.00000000    0.00000000    0.00000000
     atom   27 type  1   force =     0.00000000    0.00000000    0.00000000
     atom   28 type  1   force =     0.00000000    0.00000000    0.00000000
     atom   29 type  1   force =     0.00000000    0.00000000    0.00000000
     atom   30 type  1   force =     0.00000000    0.00000000    0.00000000
     atom   31 type  1   force =     0.00000000    0.00000000    0.00000000
     atom   32 type  1   force =     0.00000000    0.00000000    0.00000000
     atom   33 type  3   force =     0.00000000    0.00000000    0.00000000
     atom   34 type  3   force =     0.00000000    0.00000000    0.00000000
     atom   35 type  3   force =     0.00000000    0.00000000    0.00000000
     atom   36 type  3   force =     0.00000000    0.00000000    0.00000000
     The Hubbard contrib.    to forces
     atom    1 type  2   force =     0.00000000    0.00000000    0.00000000
     atom    2 type  2   force =     0.00000000    0.00000000    0.00000000
     atom    3 type  2   force =     0.00000000    0.00000000    0.00000000
     atom    4 type  2   force =     0.00000000    0.00000000    0.00000000
     atom    5 type  2   force =     0.00000000    0.00000000    0.00000000
     atom    6 type  2   force =     0.00000000    0.00000000    0.00000000
     atom    7 type  2   force =     0.00000000    0.00000000    0.00000000
     atom    8 type  2   force =     0.00000000    0.00000000    0.00000000
     atom    9 type  1   force =     0.00000000    0.00000000    0.00000000
     atom   10 type  1   force =     0.00000000    0.00000000    0.00000000
     atom   11 type  1   force =     0.00000000    0.00000000    0.00000000
     atom   12 type  1   force =     0.00000000    0.00000000    0.00000000
     atom   13 type  1   force =     0.00000000    0.00000000    0.00000000
     atom   14 type  1   force =     0.00000000    0.00000000    0.00000000
     atom   15 type  1   force =     0.00000000    0.00000000    0.00000000
     atom   16 type  1   force =     0.00000000    0.00000000    0.00000000
     atom   17 type  1   force =     0.00000000    0.00000000    0.00000000
     atom   18 type  1   force =     0.00000000    0.00000000    0.00000000
     atom   19 type  1   force =     0.00000000    0.00000000    0.00000000
     atom   20 type  1   force =     0.00000000    0.00000000    0.00000000
     atom   21 type  1   force =     0.00000000    0.00000000    0.00000000
     atom   22 type  1   force =     0.00000000    0.00000000    0.00000000
     atom   23 type  1   force =     0.00000000    0.00000000    0.00000000
     atom   24 type  1   force =     0.00000000    0.00000000    0.00000000
     atom   25 type  1   force =     0.00000000    0.00000000    0.00000000
     atom   26 type  1   force =     0.00000000    0.00000000    0.00000000
     atom   27 type  1   force =     0.00000000    0.00000000    0.00000000
     atom   28 type  1   force =     0.00000000    0.00000000    0.00000000
     atom   29 type  1   force =     0.00000000    0.00000000    0.00000000
     atom   30 type  1   force =     0.00000000    0.00000000    0.00000000
     atom   31 type  1   force =     0.00000000    0.00000000    0.00000000
     atom   32 type  1   force =     0.00000000    0.00000000    0.00000000
     atom   33 type  3   force =     0.00000000    0.00000000    0.00000000
     atom   34 type  3   force =     0.00000000    0.00000000    0.00000000
     atom   35 type  3   force =     0.00000000    0.00000000    0.00000000
     atom   36 type  3   force =     0.00000000    0.00000000    0.00000000
     The SCF correction term to forces
     atom    1 type  2   force =     0.00000012   -0.00000012    0.00000012
     atom    2 type  2   force =    -0.00000012   -0.00000012    0.00000012
     atom    3 type  2   force =     0.00000012    0.00000012   -0.00000012
     atom    4 type  2   force =    -0.00000012    0.00000012   -0.00000012
     atom    5 type  2   force =    -0.00000012   -0.00000012   -0.00000012
     atom    6 type  2   force =     0.00000012   -0.00000012   -0.00000012
     atom    7 type  2   force =    -0.00000012    0.00000012    0.00000012
     atom    8 type  2   force =     0.00000012    0.00000012    0.00000012
     atom    9 type  1   force =    -0.00000000   -0.00000000   -0.00000226
     atom   10 type  1   force =     0.00000000    0.00000167    0.00000000
     atom   11 type  1   force =     0.00000167   -0.00000000    0.00000000
     atom   12 type  1   force =     0.00000000    0.00000000    0.00000226
     atom   13 type  1   force =    -0.00000000   -0.00000226    0.00000000
     atom   14 type  1   force =    -0.00000167    0.00000000   -0.00000000
     atom   15 type  1   force =    -0.00000000   -0.00000000   -0.00000167
     atom   16 type  1   force =    -0.00000000    0.00000226    0.00000000
     atom   17 type  1   force =     0.00000167    0.00000000    0.00000000
     atom   18 type  1   force =     0.00000000    0.00000000    0.00000167
     atom   19 type  1   force =     0.00000000   -0.00000167    0.00000000
     atom   20 type  1   force =    -0.00000167   -0.00000000    0.00000000
     atom   21 type  1   force =    -0.00000000   -0.00000000   -0.00000167
     atom   22 type  1   force =     0.00000000    0.00000167    0.00000000
     atom   23 type  1   force =     0.00000226   -0.00000000    0.00000000
     atom   24 type  1   force =    -0.00000000    0.00000000    0.00000167
     atom   25 type  1   force =    -0.00000000   -0.00000169    0.00000000
     atom   26 type  1   force =    -0.00000226   -0.00000000    0.00000000
     atom   27 type  1   force =     0.00000000   -0.00000000   -0.00000169
     atom   28 type  1   force =    -0.00000000    0.00000169    0.00000000
     atom   29 type  1   force =     0.00000169   -0.00000000    0.00000000
     atom   30 type  1   force =    -0.00000000    0.00000000    0.00000169
     atom   31 type  1   force =     0.00000000   -0.00000167    0.00000000
     atom   32 type  1   force =    -0.00000169    0.00000000   -0.00000000
     atom   33 type  3   force =     0.00000000    0.00000000    0.00000000
     atom   34 type  3   force =     0.00000000    0.00000000   -0.00000000
     atom   35 type  3   force =     0.00000000    0.00000000   -0.00000000
     atom   36 type  3   force =    -0.00000000    0.00000000    0.00000000

     Total force =     0.017961     Total SCF correction =     0.000009


     Computing stress (Cartesian axis) and pressure

          total   stress  (Ry/bohr**3)                   (kbar)     P=       -2.58
  -0.00001752   0.00000000   0.00000000           -2.58        0.00        0.00
   0.00000000  -0.00001752   0.00000000            0.00       -2.58        0.00
   0.00000000   0.00000000  -0.00001752            0.00        0.00       -2.58

     kinetic stress (kbar)   6460.88      0.00      0.00
                                0.00   6460.88      0.00
                                0.00      0.00   6460.88

     local   stress (kbar)  -4065.02     -0.00     -0.00
                               -0.00  -4065.02     -0.00
                               -0.00     -0.00  -4065.02

     nonloc. stress (kbar)   4404.35      0.00      0.00
                                0.00   4404.35      0.00
                                0.00      0.00   4404.35

     hartree stress (kbar)   7254.96     -0.00      0.00
                               -0.00   7254.96      0.00
                                0.00      0.00   7254.96

     exc-cor stress (kbar)  -2042.30     -0.00     -0.00
                               -0.00  -2042.30     -0.00
                               -0.00     -0.00  -2042.30

     corecor stress (kbar)   -444.41     -0.00      0.00
                               -0.00   -444.41      0.00
                                0.00      0.00   -444.41

     ewald   stress (kbar) -11571.03      0.00      0.00
                                0.00 -11571.03      0.00
                                0.00      0.00 -11571.03

     hubbard stress (kbar)      0.00      0.00      0.00
                                0.00      0.00      0.00
                                0.00      0.00      0.00

     DFT-D   stress (kbar)      0.00      0.00      0.00
                                0.00      0.00      0.00
                                0.00      0.00      0.00

     XDM     stress (kbar)      0.00      0.00      0.00
                                0.00      0.00      0.00
                                0.00      0.00      0.00

     dft-nl  stress (kbar)      0.00      0.00      0.00
                                0.00      0.00      0.00
                                0.00      0.00      0.00

     TS-vdW  stress (kbar)      0.00      0.00      0.00
                                0.00      0.00      0.00
                                0.00      0.00      0.00

     MDB     stress (kbar)      0.00      0.00      0.00
                                0.00      0.00      0.00
                                0.00      0.00      0.00

     3D-RISM stress (kbar)      0.00      0.00      0.00
                                0.00      0.00      0.00
                                0.00      0.00      0.00


     Writing all to output data dir ./out/ru-kp-12.save/

     init_run     :      6.55s CPU      7.72s WALL (       1 calls)
     electrons    :    180.18s CPU    214.54s WALL (       1 calls)
     forces       :      1.72s CPU      1.96s WALL (       1 calls)
     stress       :     14.00s CPU     14.63s WALL (       1 calls)

     Called by init_run:
     wfcinit      :      5.18s CPU      5.95s WALL (       1 calls)
     wfcinit:atom :      0.08s CPU      0.08s WALL (      42 calls)
     wfcinit:wfcr :      4.75s CPU      5.52s WALL (      42 calls)
     potinit      :      0.47s CPU      0.66s WALL (       1 calls)
     hinit0       :      0.37s CPU      0.43s WALL (       1 calls)

     Called by electrons:
     c_bands      :    156.54s CPU    184.10s WALL (      16 calls)
     sum_band     :     19.24s CPU     22.92s WALL (      16 calls)
     v_of_rho     :      1.23s CPU      1.46s WALL (      17 calls)
     v_h          :      0.12s CPU      0.14s WALL (      17 calls)
     v_xc         :      1.24s CPU      1.47s WALL (      19 calls)
     newd         :      1.72s CPU      2.29s WALL (      17 calls)
     PAW_pot      :      1.32s CPU      3.42s WALL (      17 calls)
     mix_rho      :      0.18s CPU      0.21s WALL (      16 calls)

     Called by c_bands:
     init_us_2    :      2.34s CPU      2.51s WALL (    1470 calls)
     init_us_2:cp :      2.33s CPU      2.51s WALL (    1470 calls)
     cegterg      :    148.45s CPU    166.36s WALL (     672 calls)

     Called by sum_band:
     sum_band:wei :      0.01s CPU      0.01s WALL (      16 calls)
     sum_band:loo :     17.13s CPU     19.89s WALL (      16 calls)
     sum_band:buf :      0.41s CPU      0.43s WALL (     672 calls)
     sum_band:ini :      0.92s CPU      0.96s WALL (     672 calls)
     sum_band:cal :      2.93s CPU      3.53s WALL (     672 calls)
     sum_band:bec :      0.07s CPU      0.08s WALL (     672 calls)
     addusdens    :      1.92s CPU      2.63s WALL (      16 calls)
                                        0.00s GPU  (      16 calls)
     addusd:skk   :      0.11s CPU      0.12s WALL (      48 calls)
                                        0.00s GPU  (      48 calls)

     Called by *egterg:
     cdiaghg      :     20.23s CPU     21.40s WALL (    4599 calls)
     cegterg:over :      7.52s CPU      8.84s WALL (    3927 calls)
     cegterg:upda :      4.97s CPU      5.11s WALL (    3927 calls)
     cegterg:last :      8.45s CPU      8.52s WALL (    1792 calls)
     h_psi        :     99.26s CPU    114.36s WALL (    4641 calls)
     s_psi        :      7.56s CPU      7.70s WALL (    4641 calls)
     g_psi        :      0.25s CPU      0.26s WALL (    3927 calls)

     Called by h_psi:
     h_psi:calbec :     13.32s CPU     15.78s WALL (    4641 calls)
     vloc_psi     :     76.77s CPU     88.97s WALL (    4641 calls)
     add_vuspsi   :      8.32s CPU      8.73s WALL (    4641 calls)

     General routines
     calbec       :     17.07s CPU     20.63s WALL (    5523 calls)
     fft          :      0.92s CPU      1.24s WALL (     244 calls)
     ffts         :      0.16s CPU      0.17s WALL (      33 calls)
     fftw         :     71.86s CPU     83.55s WALL (  302216 calls)
     interpolate  :      0.22s CPU      0.25s WALL (      17 calls)

     Parallel routines

     PAW routines
     PAW_pot      :      1.32s CPU      3.42s WALL (      17 calls)
     PAW_symme    :      0.02s CPU      0.03s WALL (      33 calls)

     PWSCF        :   3m23.75s CPU   4m 3.45s WALL


   This run was terminated on:  22:37:40  13Jun2025            

=------------------------------------------------------------------------------=
   JOB DONE.
=------------------------------------------------------------------------------=
