
     Program PWSCF v.7.2 starts on 13Jun2025 at 22:41:13 

     This program is part of the open-source Quantum ESPRESSO suite
     for quantum simulation of materials; please cite
         "P. Giannozzi et al., J. Phys.:Condens. Matter 21 395502 (2009);
         "P. Giannozzi et al., J. Phys.:Condens. Matter 29 465901 (2017);
         "P. Giannozzi et al., J. Chem. Phys. 152 154105 (2020);
          URL http://www.quantum-espresso.org", 
     in publications or presentations arising from this work. More details at
     http://www.quantum-espresso.org/quote

     Parallel version (MPI & OpenMP), running on      64 processor cores
     Number of MPI processes:                64
     Threads/MPI process:                     1

     MPI processes distributed on     1 nodes
     215600 MiB available memory on the printing compute node when the environment starts

     Reading input from ru_kp_8.in

     Current dimensions of program PWSCF are:
     Max number of different atomic species (ntypx) = 10
     Max number of k-points (npk) =  40000
     Max angular momentum in pseudopotentials (lmaxx) =  4
     Message from routine read_pp_mesh:
     mismatch in mesh size, discarding the one in header
     file Mg.pbesol-n-kjpaw_psl.0.3.0.UPF: wavefunction(s)  3S renormalized
     Found identity + (  0.0000  0.5000 -0.5000) symmetry
     This is a supercell, fractional translations are disabled
     Message from routine setup:
     using ibrav=0 with symmetry is DISCOURAGED, use correct ibrav instead

     K-points division:     npool     =       2
     R & G space division:  proc/nbgrp/npool/nimage =      32
     Subspace diagonalization in iterative solution of the eigenvalue problem:
     a serial algorithm will be used


     Parallelization info
     --------------------
     sticks:   dense  smooth     PW     G-vecs:    dense   smooth      PW
     Min         416     138     37                36246     6970     993
     Max         417     139     38                36253     6975    1000
     Sum       13341    4445   1209              1160031   223135   31919

     Using Slab Decomposition



     bravais-lattice index     =            0
     lattice parameter (alat)  =      12.4630  a.u.
     unit-cell volume          =    1935.8122 (a.u.)^3
     number of atoms/cell      =           36
     number of atomic types    =            3
     number of electrons       =       104.00
     number of Kohn-Sham states=           62
     kinetic-energy cutoff     =      90.0000  Ry
     charge density cutoff     =    1080.0000  Ry
     scf convergence threshold =      7.2E-09
     mixing beta               =       0.4000
     number of iterations used =            8  plain     mixing
     Exchange-correlation= SLA PW PSX PSC
                           (   1   4  10   8   0   0   0)

     celldm(1)=  12.462956  celldm(2)=   0.000000  celldm(3)=   0.000000
     celldm(4)=   0.000000  celldm(5)=   0.000000  celldm(6)=   0.000000

     crystal axes: (cart. coord. in units of alat)
               a(1) = (   1.000000   0.000000   0.000000 )  
               a(2) = (   0.000000   1.000000   0.000000 )  
               a(3) = (   0.000000   0.000000   1.000000 )  

     reciprocal axes: (cart. coord. in units 2 pi/alat)
               b(1) = (  1.000000  0.000000  0.000000 )  
               b(2) = (  0.000000  1.000000  0.000000 )  
               b(3) = (  0.000000  0.000000  1.000000 )  


     PseudoPot. # 1 for H  read from file:
     ./pseudo/H.pbesol-rrkjus_psl.1.0.0.UPF
     MD5 check sum: 0324ed591cc0147dc3d88cad0d33f665
     Pseudo is Ultrasoft, Zval =  1.0
     Generated using "atomic" code by A. Dal Corso  v.6.0 svn rev. 13079
     Using radial grid of  929 points,  2 beta functions with: 
                l(1) =   0
                l(2) =   0
     Q(r) pseudized with 0 coefficients 


     PseudoPot. # 2 for Mg read from file:
     ./pseudo/Mg.pbesol-n-kjpaw_psl.0.3.0.UPF
     MD5 check sum: a6c8d2ff726a5f7005dea00130d82930
     Pseudo is Projector augmented-wave + core cor, Zval =  2.0
     Generated using "atomic" code by A. Dal Corso  v.6.1 svn rev. 13369
     Shape of augmentation charge: PSQ
     Using radial grid of 1129 points,  4 beta functions with: 
                l(1) =   0
                l(2) =   0
                l(3) =   1
                l(4) =   1
     Q(r) pseudized with 0 coefficients 


     PseudoPot. # 3 for Ru read from file:
     ./pseudo/Ru.upf
     MD5 check sum: be3bb57e49b2afd7571f8dd5d9c7d987
     Pseudo is Projector augmented-wave + core cor, Zval = 16.0
     Generated using ATOMPAW code
     Shape of augmentation charge: SINC**2
     Using radial grid of 2342 points,  6 beta functions with: 
                l(1) =   0
                l(2) =   0
                l(3) =   1
                l(4) =   1
                l(5) =   2
                l(6) =   2
     Q(r) pseudized with 0 coefficients 


     atomic species   valence    mass     pseudopotential
        H              1.00     1.00794     H ( 1.00)
        Mg             2.00    24.30500     Mg( 1.00)
        Ru            16.00   101.07000     Ru( 1.00)

     48 Sym. Ops., with inversion, found


                                    s                        frac. trans.

      isym =  1     identity                                     

 cryst.   s( 1) = (     1          0          0      )
                  (     0          1          0      )
                  (     0          0          1      )

 cart.    s( 1) = (  1.0000000  0.0000000  0.0000000 )
                  (  0.0000000  1.0000000  0.0000000 )
                  (  0.0000000  0.0000000  1.0000000 )


      isym =  2     180 deg rotation - cart. axis [0,0,1]        

 cryst.   s( 2) = (    -1          0          0      )
                  (     0         -1          0      )
                  (     0          0          1      )

 cart.    s( 2) = ( -1.0000000  0.0000000  0.0000000 )
                  (  0.0000000 -1.0000000  0.0000000 )
                  (  0.0000000  0.0000000  1.0000000 )


      isym =  3     180 deg rotation - cart. axis [0,1,0]        

 cryst.   s( 3) = (    -1          0          0      )
                  (     0          1          0      )
                  (     0          0         -1      )

 cart.    s( 3) = ( -1.0000000  0.0000000  0.0000000 )
                  (  0.0000000  1.0000000  0.0000000 )
                  (  0.0000000  0.0000000 -1.0000000 )


      isym =  4     180 deg rotation - cart. axis [1,0,0]        

 cryst.   s( 4) = (     1          0          0      )
                  (     0         -1          0      )
                  (     0          0         -1      )

 cart.    s( 4) = (  1.0000000  0.0000000  0.0000000 )
                  (  0.0000000 -1.0000000  0.0000000 )
                  (  0.0000000  0.0000000 -1.0000000 )


      isym =  5     180 deg rotation - cart. axis [1,1,0]        

 cryst.   s( 5) = (     0          1          0      )
                  (     1          0          0      )
                  (     0          0         -1      )

 cart.    s( 5) = (  0.0000000  1.0000000  0.0000000 )
                  (  1.0000000  0.0000000  0.0000000 )
                  (  0.0000000  0.0000000 -1.0000000 )


      isym =  6     180 deg rotation - cart. axis [1,-1,0]       

 cryst.   s( 6) = (     0         -1          0      )
                  (    -1          0          0      )
                  (     0          0         -1      )

 cart.    s( 6) = (  0.0000000 -1.0000000  0.0000000 )
                  ( -1.0000000  0.0000000  0.0000000 )
                  (  0.0000000  0.0000000 -1.0000000 )


      isym =  7      90 deg rotation - cart. axis [0,0,-1]       

 cryst.   s( 7) = (     0         -1          0      )
                  (     1          0          0      )
                  (     0          0          1      )

 cart.    s( 7) = (  0.0000000  1.0000000  0.0000000 )
                  ( -1.0000000  0.0000000  0.0000000 )
                  (  0.0000000  0.0000000  1.0000000 )


      isym =  8      90 deg rotation - cart. axis [0,0,1]        

 cryst.   s( 8) = (     0          1          0      )
                  (    -1          0          0      )
                  (     0          0          1      )

 cart.    s( 8) = (  0.0000000 -1.0000000  0.0000000 )
                  (  1.0000000  0.0000000  0.0000000 )
                  (  0.0000000  0.0000000  1.0000000 )


      isym =  9     180 deg rotation - cart. axis [1,0,1]        

 cryst.   s( 9) = (     0          0          1      )
                  (     0         -1          0      )
                  (     1          0          0      )

 cart.    s( 9) = (  0.0000000  0.0000000  1.0000000 )
                  (  0.0000000 -1.0000000  0.0000000 )
                  (  1.0000000  0.0000000  0.0000000 )


      isym = 10     180 deg rotation - cart. axis [-1,0,1]       

 cryst.   s(10) = (     0          0         -1      )
                  (     0         -1          0      )
                  (    -1          0          0      )

 cart.    s(10) = (  0.0000000  0.0000000 -1.0000000 )
                  (  0.0000000 -1.0000000  0.0000000 )
                  ( -1.0000000  0.0000000  0.0000000 )


      isym = 11      90 deg rotation - cart. axis [0,1,0]        

 cryst.   s(11) = (     0          0         -1      )
                  (     0          1          0      )
                  (     1          0          0      )

 cart.    s(11) = (  0.0000000  0.0000000  1.0000000 )
                  (  0.0000000  1.0000000  0.0000000 )
                  ( -1.0000000  0.0000000  0.0000000 )


      isym = 12      90 deg rotation - cart. axis [0,-1,0]       

 cryst.   s(12) = (     0          0          1      )
                  (     0          1          0      )
                  (    -1          0          0      )

 cart.    s(12) = (  0.0000000  0.0000000 -1.0000000 )
                  (  0.0000000  1.0000000  0.0000000 )
                  (  1.0000000  0.0000000  0.0000000 )


      isym = 13     180 deg rotation - cart. axis [0,1,1]        

 cryst.   s(13) = (    -1          0          0      )
                  (     0          0          1      )
                  (     0          1          0      )

 cart.    s(13) = ( -1.0000000  0.0000000  0.0000000 )
                  (  0.0000000  0.0000000  1.0000000 )
                  (  0.0000000  1.0000000  0.0000000 )


      isym = 14     180 deg rotation - cart. axis [0,1,-1]       

 cryst.   s(14) = (    -1          0          0      )
                  (     0          0         -1      )
                  (     0         -1          0      )

 cart.    s(14) = ( -1.0000000  0.0000000  0.0000000 )
                  (  0.0000000  0.0000000 -1.0000000 )
                  (  0.0000000 -1.0000000  0.0000000 )


      isym = 15      90 deg rotation - cart. axis [-1,0,0]       

 cryst.   s(15) = (     1          0          0      )
                  (     0          0         -1      )
                  (     0          1          0      )

 cart.    s(15) = (  1.0000000  0.0000000  0.0000000 )
                  (  0.0000000  0.0000000  1.0000000 )
                  (  0.0000000 -1.0000000  0.0000000 )


      isym = 16      90 deg rotation - cart. axis [1,0,0]        

 cryst.   s(16) = (     1          0          0      )
                  (     0          0          1      )
                  (     0         -1          0      )

 cart.    s(16) = (  1.0000000  0.0000000  0.0000000 )
                  (  0.0000000  0.0000000 -1.0000000 )
                  (  0.0000000  1.0000000  0.0000000 )


      isym = 17     120 deg rotation - cart. axis [-1,-1,-1]     

 cryst.   s(17) = (     0          0          1      )
                  (     1          0          0      )
                  (     0          1          0      )

 cart.    s(17) = (  0.0000000  1.0000000  0.0000000 )
                  (  0.0000000  0.0000000  1.0000000 )
                  (  1.0000000  0.0000000  0.0000000 )


      isym = 18     120 deg rotation - cart. axis [-1,1,1]       

 cryst.   s(18) = (     0          0         -1      )
                  (    -1          0          0      )
                  (     0          1          0      )

 cart.    s(18) = (  0.0000000 -1.0000000  0.0000000 )
                  (  0.0000000  0.0000000  1.0000000 )
                  ( -1.0000000  0.0000000  0.0000000 )


      isym = 19     120 deg rotation - cart. axis [1,1,-1]       

 cryst.   s(19) = (     0          0         -1      )
                  (     1          0          0      )
                  (     0         -1          0      )

 cart.    s(19) = (  0.0000000  1.0000000  0.0000000 )
                  (  0.0000000  0.0000000 -1.0000000 )
                  ( -1.0000000  0.0000000  0.0000000 )


      isym = 20     120 deg rotation - cart. axis [1,-1,1]       

 cryst.   s(20) = (     0          0          1      )
                  (    -1          0          0      )
                  (     0         -1          0      )

 cart.    s(20) = (  0.0000000 -1.0000000  0.0000000 )
                  (  0.0000000  0.0000000 -1.0000000 )
                  (  1.0000000  0.0000000  0.0000000 )


      isym = 21     120 deg rotation - cart. axis [1,1,1]        

 cryst.   s(21) = (     0          1          0      )
                  (     0          0          1      )
                  (     1          0          0      )

 cart.    s(21) = (  0.0000000  0.0000000  1.0000000 )
                  (  1.0000000  0.0000000  0.0000000 )
                  (  0.0000000  1.0000000  0.0000000 )


      isym = 22     120 deg rotation - cart. axis [-1,1,-1]      

 cryst.   s(22) = (     0         -1          0      )
                  (     0          0         -1      )
                  (     1          0          0      )

 cart.    s(22) = (  0.0000000  0.0000000  1.0000000 )
                  ( -1.0000000  0.0000000  0.0000000 )
                  (  0.0000000 -1.0000000  0.0000000 )


      isym = 23     120 deg rotation - cart. axis [1,-1,-1]      

 cryst.   s(23) = (     0         -1          0      )
                  (     0          0          1      )
                  (    -1          0          0      )

 cart.    s(23) = (  0.0000000  0.0000000 -1.0000000 )
                  ( -1.0000000  0.0000000  0.0000000 )
                  (  0.0000000  1.0000000  0.0000000 )


      isym = 24     120 deg rotation - cart. axis [-1,-1,1]      

 cryst.   s(24) = (     0          1          0      )
                  (     0          0         -1      )
                  (    -1          0          0      )

 cart.    s(24) = (  0.0000000  0.0000000 -1.0000000 )
                  (  1.0000000  0.0000000  0.0000000 )
                  (  0.0000000 -1.0000000  0.0000000 )


      isym = 25     inversion                                    

 cryst.   s(25) = (    -1          0          0      )
                  (     0         -1          0      )
                  (     0          0         -1      )

 cart.    s(25) = ( -1.0000000  0.0000000  0.0000000 )
                  (  0.0000000 -1.0000000  0.0000000 )
                  (  0.0000000  0.0000000 -1.0000000 )


      isym = 26     inv. 180 deg rotation - cart. axis [0,0,1]   

 cryst.   s(26) = (     1          0          0      )
                  (     0          1          0      )
                  (     0          0         -1      )

 cart.    s(26) = (  1.0000000  0.0000000  0.0000000 )
                  (  0.0000000  1.0000000  0.0000000 )
                  (  0.0000000  0.0000000 -1.0000000 )


      isym = 27     inv. 180 deg rotation - cart. axis [0,1,0]   

 cryst.   s(27) = (     1          0          0      )
                  (     0         -1          0      )
                  (     0          0          1      )

 cart.    s(27) = (  1.0000000  0.0000000  0.0000000 )
                  (  0.0000000 -1.0000000  0.0000000 )
                  (  0.0000000  0.0000000  1.0000000 )


      isym = 28     inv. 180 deg rotation - cart. axis [1,0,0]   

 cryst.   s(28) = (    -1          0          0      )
                  (     0          1          0      )
                  (     0          0          1      )

 cart.    s(28) = ( -1.0000000  0.0000000  0.0000000 )
                  (  0.0000000  1.0000000  0.0000000 )
                  (  0.0000000  0.0000000  1.0000000 )


      isym = 29     inv. 180 deg rotation - cart. axis [1,1,0]   

 cryst.   s(29) = (     0         -1          0      )
                  (    -1          0          0      )
                  (     0          0          1      )

 cart.    s(29) = (  0.0000000 -1.0000000  0.0000000 )
                  ( -1.0000000  0.0000000  0.0000000 )
                  (  0.0000000  0.0000000  1.0000000 )


      isym = 30     inv. 180 deg rotation - cart. axis [1,-1,0]  

 cryst.   s(30) = (     0          1          0      )
                  (     1          0          0      )
                  (     0          0          1      )

 cart.    s(30) = (  0.0000000  1.0000000  0.0000000 )
                  (  1.0000000  0.0000000  0.0000000 )
                  (  0.0000000  0.0000000  1.0000000 )


      isym = 31     inv.  90 deg rotation - cart. axis [0,0,-1]  

 cryst.   s(31) = (     0          1          0      )
                  (    -1          0          0      )
                  (     0          0         -1      )

 cart.    s(31) = (  0.0000000 -1.0000000  0.0000000 )
                  (  1.0000000  0.0000000  0.0000000 )
                  (  0.0000000  0.0000000 -1.0000000 )


      isym = 32     inv.  90 deg rotation - cart. axis [0,0,1]   

 cryst.   s(32) = (     0         -1          0      )
                  (     1          0          0      )
                  (     0          0         -1      )

 cart.    s(32) = (  0.0000000  1.0000000  0.0000000 )
                  ( -1.0000000  0.0000000  0.0000000 )
                  (  0.0000000  0.0000000 -1.0000000 )


      isym = 33     inv. 180 deg rotation - cart. axis [1,0,1]   

 cryst.   s(33) = (     0          0         -1      )
                  (     0          1          0      )
                  (    -1          0          0      )

 cart.    s(33) = (  0.0000000  0.0000000 -1.0000000 )
                  (  0.0000000  1.0000000  0.0000000 )
                  ( -1.0000000  0.0000000  0.0000000 )


      isym = 34     inv. 180 deg rotation - cart. axis [-1,0,1]  

 cryst.   s(34) = (     0          0          1      )
                  (     0          1          0      )
                  (     1          0          0      )

 cart.    s(34) = (  0.0000000  0.0000000  1.0000000 )
                  (  0.0000000  1.0000000  0.0000000 )
                  (  1.0000000  0.0000000  0.0000000 )


      isym = 35     inv.  90 deg rotation - cart. axis [0,1,0]   

 cryst.   s(35) = (     0          0          1      )
                  (     0         -1          0      )
                  (    -1          0          0      )

 cart.    s(35) = (  0.0000000  0.0000000 -1.0000000 )
                  (  0.0000000 -1.0000000  0.0000000 )
                  (  1.0000000  0.0000000  0.0000000 )


      isym = 36     inv.  90 deg rotation - cart. axis [0,-1,0]  

 cryst.   s(36) = (     0          0         -1      )
                  (     0         -1          0      )
                  (     1          0          0      )

 cart.    s(36) = (  0.0000000  0.0000000  1.0000000 )
                  (  0.0000000 -1.0000000  0.0000000 )
                  ( -1.0000000  0.0000000  0.0000000 )


      isym = 37     inv. 180 deg rotation - cart. axis [0,1,1]   

 cryst.   s(37) = (     1          0          0      )
                  (     0          0         -1      )
                  (     0         -1          0      )

 cart.    s(37) = (  1.0000000  0.0000000  0.0000000 )
                  (  0.0000000  0.0000000 -1.0000000 )
                  (  0.0000000 -1.0000000  0.0000000 )


      isym = 38     inv. 180 deg rotation - cart. axis [0,1,-1]  

 cryst.   s(38) = (     1          0          0      )
                  (     0          0          1      )
                  (     0          1          0      )

 cart.    s(38) = (  1.0000000  0.0000000  0.0000000 )
                  (  0.0000000  0.0000000  1.0000000 )
                  (  0.0000000  1.0000000  0.0000000 )


      isym = 39     inv.  90 deg rotation - cart. axis [-1,0,0]  

 cryst.   s(39) = (    -1          0          0      )
                  (     0          0          1      )
                  (     0         -1          0      )

 cart.    s(39) = ( -1.0000000  0.0000000  0.0000000 )
                  (  0.0000000  0.0000000 -1.0000000 )
                  (  0.0000000  1.0000000  0.0000000 )


      isym = 40     inv.  90 deg rotation - cart. axis [1,0,0]   

 cryst.   s(40) = (    -1          0          0      )
                  (     0          0         -1      )
                  (     0          1          0      )

 cart.    s(40) = ( -1.0000000  0.0000000  0.0000000 )
                  (  0.0000000  0.0000000  1.0000000 )
                  (  0.0000000 -1.0000000  0.0000000 )


      isym = 41     inv. 120 deg rotation - cart. axis [-1,-1,-1]

 cryst.   s(41) = (     0          0         -1      )
                  (    -1          0          0      )
                  (     0         -1          0      )

 cart.    s(41) = (  0.0000000 -1.0000000  0.0000000 )
                  (  0.0000000  0.0000000 -1.0000000 )
                  ( -1.0000000  0.0000000  0.0000000 )


      isym = 42     inv. 120 deg rotation - cart. axis [-1,1,1]  

 cryst.   s(42) = (     0          0          1      )
                  (     1          0          0      )
                  (     0         -1          0      )

 cart.    s(42) = (  0.0000000  1.0000000  0.0000000 )
                  (  0.0000000  0.0000000 -1.0000000 )
                  (  1.0000000  0.0000000  0.0000000 )


      isym = 43     inv. 120 deg rotation - cart. axis [1,1,-1]  

 cryst.   s(43) = (     0          0          1      )
                  (    -1          0          0      )
                  (     0          1          0      )

 cart.    s(43) = (  0.0000000 -1.0000000  0.0000000 )
                  (  0.0000000  0.0000000  1.0000000 )
                  (  1.0000000  0.0000000  0.0000000 )


      isym = 44     inv. 120 deg rotation - cart. axis [1,-1,1]  

 cryst.   s(44) = (     0          0         -1      )
                  (     1          0          0      )
                  (     0          1          0      )

 cart.    s(44) = (  0.0000000  1.0000000  0.0000000 )
                  (  0.0000000  0.0000000  1.0000000 )
                  ( -1.0000000  0.0000000  0.0000000 )


      isym = 45     inv. 120 deg rotation - cart. axis [1,1,1]   

 cryst.   s(45) = (     0         -1          0      )
                  (     0          0         -1      )
                  (    -1          0          0      )

 cart.    s(45) = (  0.0000000  0.0000000 -1.0000000 )
                  ( -1.0000000  0.0000000  0.0000000 )
                  (  0.0000000 -1.0000000  0.0000000 )


      isym = 46     inv. 120 deg rotation - cart. axis [-1,1,-1] 

 cryst.   s(46) = (     0          1          0      )
                  (     0          0          1      )
                  (    -1          0          0      )

 cart.    s(46) = (  0.0000000  0.0000000 -1.0000000 )
                  (  1.0000000  0.0000000  0.0000000 )
                  (  0.0000000  1.0000000  0.0000000 )


      isym = 47     inv. 120 deg rotation - cart. axis [1,-1,-1] 

 cryst.   s(47) = (     0          1          0      )
                  (     0          0         -1      )
                  (     1          0          0      )

 cart.    s(47) = (  0.0000000  0.0000000  1.0000000 )
                  (  1.0000000  0.0000000  0.0000000 )
                  (  0.0000000 -1.0000000  0.0000000 )


      isym = 48     inv. 120 deg rotation - cart. axis [-1,-1,1] 

 cryst.   s(48) = (     0         -1          0      )
                  (     0          0          1      )
                  (     1          0          0      )

 cart.    s(48) = (  0.0000000  0.0000000  1.0000000 )
                  ( -1.0000000  0.0000000  0.0000000 )
                  (  0.0000000  1.0000000  0.0000000 )


   Cartesian axes

     site n.     atom                  positions (alat units)
         1           Mg  tau(   1) = (   0.2500000   0.7500000   0.2500000  )
         2           Mg  tau(   2) = (   0.7500000   0.7500000   0.2500000  )
         3           Mg  tau(   3) = (   0.2500000   0.2500000   0.7500000  )
         4           Mg  tau(   4) = (   0.7500000   0.2500000   0.7500000  )
         5           Mg  tau(   5) = (   0.7500000   0.7500000   0.7500000  )
         6           Mg  tau(   6) = (   0.2500000   0.7500000   0.7500000  )
         7           Mg  tau(   7) = (   0.7500000   0.2500000   0.2500000  )
         8           Mg  tau(   8) = (   0.2500000   0.2500000   0.2500000  )
         9           H   tau(   9) = (   0.0000000   0.0000000   0.7469588  )
        10           H   tau(  10) = (   0.0000000   0.7530412   0.5000000  )
        11           H   tau(  11) = (   0.7530412   0.0000000   0.5000000  )
        12           H   tau(  12) = (   0.0000000   0.0000000   0.2530412  )
        13           H   tau(  13) = (   0.0000000   0.7469588   0.0000000  )
        14           H   tau(  14) = (   0.2469588   0.0000000   0.5000000  )
        15           H   tau(  15) = (   0.0000000   0.5000000   0.2469588  )
        16           H   tau(  16) = (   0.0000000   0.2530412   0.0000000  )
        17           H   tau(  17) = (   0.7530412   0.5000000   0.0000000  )
        18           H   tau(  18) = (   0.0000000   0.5000000   0.7530412  )
        19           H   tau(  19) = (   0.0000000   0.2469588   0.5000000  )
        20           H   tau(  20) = (   0.2469588   0.5000000   0.0000000  )
        21           H   tau(  21) = (   0.5000000   0.0000000   0.2469588  )
        22           H   tau(  22) = (   0.5000000   0.7530412   0.0000000  )
        23           H   tau(  23) = (   0.2530412   0.0000000   0.0000000  )
        24           H   tau(  24) = (   0.5000000   0.0000000   0.7530412  )
        25           H   tau(  25) = (   0.5000000   0.7469588   0.5000000  )
        26           H   tau(  26) = (   0.7469588   0.0000000   0.0000000  )
        27           H   tau(  27) = (   0.5000000   0.5000000   0.7469588  )
        28           H   tau(  28) = (   0.5000000   0.2530412   0.5000000  )
        29           H   tau(  29) = (   0.2530412   0.5000000   0.5000000  )
        30           H   tau(  30) = (   0.5000000   0.5000000   0.2530412  )
        31           H   tau(  31) = (   0.5000000   0.2469588   0.0000000  )
        32           H   tau(  32) = (   0.7469588   0.5000000   0.5000000  )
        33           Ru  tau(  33) = (   0.0000000   0.0000000   0.0000000  )
        34           Ru  tau(  34) = (   0.0000000   0.5000000   0.5000000  )
        35           Ru  tau(  35) = (   0.5000000   0.0000000   0.5000000  )
        36           Ru  tau(  36) = (   0.5000000   0.5000000   0.0000000  )

   Crystallographic axes

     site n.     atom                  positions (cryst. coord.)
         1           Mg  tau(   1) = (  0.2500000  0.7500000  0.2500000  )
         2           Mg  tau(   2) = (  0.7500000  0.7500000  0.2500000  )
         3           Mg  tau(   3) = (  0.2500000  0.2500000  0.7500000  )
         4           Mg  tau(   4) = (  0.7500000  0.2500000  0.7500000  )
         5           Mg  tau(   5) = (  0.7500000  0.7500000  0.7500000  )
         6           Mg  tau(   6) = (  0.2500000  0.7500000  0.7500000  )
         7           Mg  tau(   7) = (  0.7500000  0.2500000  0.2500000  )
         8           Mg  tau(   8) = (  0.2500000  0.2500000  0.2500000  )
         9           H   tau(   9) = (  0.0000000  0.0000000  0.7469588  )
        10           H   tau(  10) = (  0.0000000  0.7530412  0.5000000  )
        11           H   tau(  11) = (  0.7530412  0.0000000  0.5000000  )
        12           H   tau(  12) = (  0.0000000  0.0000000  0.2530412  )
        13           H   tau(  13) = (  0.0000000  0.7469588  0.0000000  )
        14           H   tau(  14) = (  0.2469588  0.0000000  0.5000000  )
        15           H   tau(  15) = (  0.0000000  0.5000000  0.2469588  )
        16           H   tau(  16) = (  0.0000000  0.2530412  0.0000000  )
        17           H   tau(  17) = (  0.7530412  0.5000000  0.0000000  )
        18           H   tau(  18) = (  0.0000000  0.5000000  0.7530412  )
        19           H   tau(  19) = (  0.0000000  0.2469588  0.5000000  )
        20           H   tau(  20) = (  0.2469588  0.5000000  0.0000000  )
        21           H   tau(  21) = (  0.5000000  0.0000000  0.2469588  )
        22           H   tau(  22) = (  0.5000000  0.7530412  0.0000000  )
        23           H   tau(  23) = (  0.2530412  0.0000000  0.0000000  )
        24           H   tau(  24) = (  0.5000000  0.0000000  0.7530412  )
        25           H   tau(  25) = (  0.5000000  0.7469588  0.5000000  )
        26           H   tau(  26) = (  0.7469588  0.0000000  0.0000000  )
        27           H   tau(  27) = (  0.5000000  0.5000000  0.7469588  )
        28           H   tau(  28) = (  0.5000000  0.2530412  0.5000000  )
        29           H   tau(  29) = (  0.2530412  0.5000000  0.5000000  )
        30           H   tau(  30) = (  0.5000000  0.5000000  0.2530412  )
        31           H   tau(  31) = (  0.5000000  0.2469588  0.0000000  )
        32           H   tau(  32) = (  0.7469588  0.5000000  0.5000000  )
        33           Ru  tau(  33) = (  0.0000000  0.0000000  0.0000000  )
        34           Ru  tau(  34) = (  0.0000000  0.5000000  0.5000000  )
        35           Ru  tau(  35) = (  0.5000000  0.0000000  0.5000000  )
        36           Ru  tau(  36) = (  0.5000000  0.5000000  0.0000000  )

     number of k points=    35  Gaussian smearing, width (Ry)=  0.0200
                       cart. coord. in units 2pi/alat
        k(    1) = (   0.0000000   0.0000000   0.0000000), wk =   0.0039062
        k(    2) = (   0.0000000   0.0000000   0.1250000), wk =   0.0234375
        k(    3) = (   0.0000000   0.0000000   0.2500000), wk =   0.0234375
        k(    4) = (   0.0000000   0.0000000   0.3750000), wk =   0.0234375
        k(    5) = (   0.0000000   0.0000000  -0.5000000), wk =   0.0117188
        k(    6) = (   0.0000000   0.1250000   0.1250000), wk =   0.0468750
        k(    7) = (   0.0000000   0.1250000   0.2500000), wk =   0.0937500
        k(    8) = (   0.0000000   0.1250000   0.3750000), wk =   0.0937500
        k(    9) = (   0.0000000   0.1250000  -0.5000000), wk =   0.0468750
        k(   10) = (   0.0000000   0.2500000   0.2500000), wk =   0.0468750
        k(   11) = (   0.0000000   0.2500000   0.3750000), wk =   0.0937500
        k(   12) = (   0.0000000   0.2500000  -0.5000000), wk =   0.0468750
        k(   13) = (   0.0000000   0.3750000   0.3750000), wk =   0.0468750
        k(   14) = (   0.0000000   0.3750000  -0.5000000), wk =   0.0468750
        k(   15) = (   0.0000000  -0.5000000  -0.5000000), wk =   0.0117188
        k(   16) = (   0.1250000   0.1250000   0.1250000), wk =   0.0312500
        k(   17) = (   0.1250000   0.1250000   0.2500000), wk =   0.0937500
        k(   18) = (   0.1250000   0.1250000   0.3750000), wk =   0.0937500
        k(   19) = (   0.1250000   0.1250000  -0.5000000), wk =   0.0468750
        k(   20) = (   0.1250000   0.2500000   0.2500000), wk =   0.0937500
        k(   21) = (   0.1250000   0.2500000   0.3750000), wk =   0.1875000
        k(   22) = (   0.1250000   0.2500000  -0.5000000), wk =   0.0937500
        k(   23) = (   0.1250000   0.3750000   0.3750000), wk =   0.0937500
        k(   24) = (   0.1250000   0.3750000  -0.5000000), wk =   0.0937500
        k(   25) = (   0.1250000  -0.5000000  -0.5000000), wk =   0.0234375
        k(   26) = (   0.2500000   0.2500000   0.2500000), wk =   0.0312500
        k(   27) = (   0.2500000   0.2500000   0.3750000), wk =   0.0937500
        k(   28) = (   0.2500000   0.2500000  -0.5000000), wk =   0.0468750
        k(   29) = (   0.2500000   0.3750000   0.3750000), wk =   0.0937500
        k(   30) = (   0.2500000   0.3750000  -0.5000000), wk =   0.0937500
        k(   31) = (   0.2500000  -0.5000000  -0.5000000), wk =   0.0234375
        k(   32) = (   0.3750000   0.3750000   0.3750000), wk =   0.0312500
        k(   33) = (   0.3750000   0.3750000  -0.5000000), wk =   0.0468750
        k(   34) = (   0.3750000  -0.5000000  -0.5000000), wk =   0.0234375
        k(   35) = (  -0.5000000  -0.5000000  -0.5000000), wk =   0.0039062

                       cryst. coord.
        k(    1) = (   0.0000000   0.0000000   0.0000000), wk =   0.0039062
        k(    2) = (   0.0000000   0.0000000   0.1250000), wk =   0.0234375
        k(    3) = (   0.0000000   0.0000000   0.2500000), wk =   0.0234375
        k(    4) = (   0.0000000   0.0000000   0.3750000), wk =   0.0234375
        k(    5) = (   0.0000000   0.0000000  -0.5000000), wk =   0.0117188
        k(    6) = (   0.0000000   0.1250000   0.1250000), wk =   0.0468750
        k(    7) = (   0.0000000   0.1250000   0.2500000), wk =   0.0937500
        k(    8) = (   0.0000000   0.1250000   0.3750000), wk =   0.0937500
        k(    9) = (   0.0000000   0.1250000  -0.5000000), wk =   0.0468750
        k(   10) = (   0.0000000   0.2500000   0.2500000), wk =   0.0468750
        k(   11) = (   0.0000000   0.2500000   0.3750000), wk =   0.0937500
        k(   12) = (   0.0000000   0.2500000  -0.5000000), wk =   0.0468750
        k(   13) = (   0.0000000   0.3750000   0.3750000), wk =   0.0468750
        k(   14) = (   0.0000000   0.3750000  -0.5000000), wk =   0.0468750
        k(   15) = (   0.0000000  -0.5000000  -0.5000000), wk =   0.0117188
        k(   16) = (   0.1250000   0.1250000   0.1250000), wk =   0.0312500
        k(   17) = (   0.1250000   0.1250000   0.2500000), wk =   0.0937500
        k(   18) = (   0.1250000   0.1250000   0.3750000), wk =   0.0937500
        k(   19) = (   0.1250000   0.1250000  -0.5000000), wk =   0.0468750
        k(   20) = (   0.1250000   0.2500000   0.2500000), wk =   0.0937500
        k(   21) = (   0.1250000   0.2500000   0.3750000), wk =   0.1875000
        k(   22) = (   0.1250000   0.2500000  -0.5000000), wk =   0.0937500
        k(   23) = (   0.1250000   0.3750000   0.3750000), wk =   0.0937500
        k(   24) = (   0.1250000   0.3750000  -0.5000000), wk =   0.0937500
        k(   25) = (   0.1250000  -0.5000000  -0.5000000), wk =   0.0234375
        k(   26) = (   0.2500000   0.2500000   0.2500000), wk =   0.0312500
        k(   27) = (   0.2500000   0.2500000   0.3750000), wk =   0.0937500
        k(   28) = (   0.2500000   0.2500000  -0.5000000), wk =   0.0468750
        k(   29) = (   0.2500000   0.3750000   0.3750000), wk =   0.0937500
        k(   30) = (   0.2500000   0.3750000  -0.5000000), wk =   0.0937500
        k(   31) = (   0.2500000  -0.5000000  -0.5000000), wk =   0.0234375
        k(   32) = (   0.3750000   0.3750000   0.3750000), wk =   0.0312500
        k(   33) = (   0.3750000   0.3750000  -0.5000000), wk =   0.0468750
        k(   34) = (   0.3750000  -0.5000000  -0.5000000), wk =   0.0234375
        k(   35) = (  -0.5000000  -0.5000000  -0.5000000), wk =   0.0039062

     Dense  grid:  1160031 G-vectors     FFT dimensions: ( 135, 135, 135)

     Smooth grid:   223135 G-vectors     FFT dimensions: (  75,  75,  75)

     Dynamical RAM for                 wfc:       0.82 MB

     Dynamical RAM for     wfc (w. buffer):      15.67 MB

     Dynamical RAM for           str. fact:       1.66 MB

     Dynamical RAM for           local pot:       0.00 MB

     Dynamical RAM for          nlocal pot:       2.45 MB

     Dynamical RAM for                qrad:       7.91 MB

     Dynamical RAM for          rho,v,vnew:       3.75 MB

     Dynamical RAM for               rhoin:       1.25 MB

     Dynamical RAM for            rho*nmix:       8.85 MB

     Dynamical RAM for           G-vectors:       2.13 MB

     Dynamical RAM for          h,s,v(r/c):       0.70 MB

     Dynamical RAM for          <psi|beta>:       0.17 MB

     Dynamical RAM for                 psi:       1.65 MB

     Dynamical RAM for                hpsi:       1.65 MB

     Dynamical RAM for                spsi:       1.65 MB

     Dynamical RAM for      wfcinit/wfcrot:       3.78 MB

     Dynamical RAM for           addusdens:      58.36 MB

     Dynamical RAM for          addusforce:      71.18 MB

     Dynamical RAM for         addusstress:      55.73 MB

     Estimated static dynamical RAM per process >      40.50 MB

     Estimated max dynamical RAM per process >     120.52 MB

     Estimated total dynamical RAM >       7.26 GB

     Initial potential from superposition of free atoms

     starting charge     103.9896, renormalised to     104.0000
     Starting wfcs are  128 randomized atomic wfcs
     Checking if some PAW data can be deallocated... 
       PAW data deallocated on   48 nodes for type:  2
       PAW data deallocated on   60 nodes for type:  3

     total cpu time spent up to now is        4.8 secs

     Self-consistent Calculation

     iteration #  1     ecut=    90.00 Ry     beta= 0.40
     Davidson diagonalization with overlap

---- Real-time Memory Report at c_bands before calling an iterative solver
           136 MiB given to the printing process from OS
             0 MiB allocation reported by mallinfo(arena+hblkhd)
        211889 MiB available memory on the node where the printing process lives
------------------
     ethr =  1.00E-02,  avg # of iterations =  2.3

     total cpu time spent up to now is        9.4 secs

     total energy              =   -1998.57607466 Ry
     estimated scf accuracy    <       1.37405503 Ry

     iteration #  2     ecut=    90.00 Ry     beta= 0.40
     Davidson diagonalization with overlap

---- Real-time Memory Report at c_bands before calling an iterative solver
           169 MiB given to the printing process from OS
             0 MiB allocation reported by mallinfo(arena+hblkhd)
        210959 MiB available memory on the node where the printing process lives
------------------
     ethr =  1.32E-03,  avg # of iterations =  2.0

     total cpu time spent up to now is       13.6 secs

     total energy              =   -1998.50752668 Ry
     estimated scf accuracy    <       0.33506686 Ry

     iteration #  3     ecut=    90.00 Ry     beta= 0.40
     Davidson diagonalization with overlap

---- Real-time Memory Report at c_bands before calling an iterative solver
           172 MiB given to the printing process from OS
             0 MiB allocation reported by mallinfo(arena+hblkhd)
        210880 MiB available memory on the node where the printing process lives
------------------
     ethr =  3.22E-04,  avg # of iterations =  2.7

     total cpu time spent up to now is       18.5 secs

     total energy              =   -1998.56774516 Ry
     estimated scf accuracy    <       0.00425578 Ry

     iteration #  4     ecut=    90.00 Ry     beta= 0.40
     Davidson diagonalization with overlap

---- Real-time Memory Report at c_bands before calling an iterative solver
           173 MiB given to the printing process from OS
             0 MiB allocation reported by mallinfo(arena+hblkhd)
        210880 MiB available memory on the node where the printing process lives
------------------
     c_bands:  1 eigenvalues not converged
     c_bands:  2 eigenvalues not converged
     c_bands:  2 eigenvalues not converged
     c_bands:  1 eigenvalues not converged
     c_bands:  2 eigenvalues not converged
     c_bands:  2 eigenvalues not converged
     c_bands:  3 eigenvalues not converged
     c_bands:  2 eigenvalues not converged
     ethr =  4.09E-06,  avg # of iterations = 15.4

     total cpu time spent up to now is       30.3 secs

     total energy              =   -1998.57455547 Ry
     estimated scf accuracy    <       0.00236182 Ry

     iteration #  5     ecut=    90.00 Ry     beta= 0.40
     Davidson diagonalization with overlap

---- Real-time Memory Report at c_bands before calling an iterative solver
           173 MiB given to the printing process from OS
             0 MiB allocation reported by mallinfo(arena+hblkhd)
        210896 MiB available memory on the node where the printing process lives
------------------
     c_bands:  1 eigenvalues not converged
     c_bands:  1 eigenvalues not converged
     c_bands:  2 eigenvalues not converged
     ethr =  2.27E-06,  avg # of iterations =  9.8

     total cpu time spent up to now is       37.3 secs

     total energy              =   -1998.57498252 Ry
     estimated scf accuracy    <       0.00065143 Ry

     iteration #  6     ecut=    90.00 Ry     beta= 0.40
     Davidson diagonalization with overlap

---- Real-time Memory Report at c_bands before calling an iterative solver
           174 MiB given to the printing process from OS
             0 MiB allocation reported by mallinfo(arena+hblkhd)
        210898 MiB available memory on the node where the printing process lives
------------------
     c_bands:  2 eigenvalues not converged
     c_bands:  1 eigenvalues not converged
     ethr =  6.26E-07,  avg # of iterations =  7.2

     total cpu time spent up to now is       43.7 secs

     total energy              =   -1998.57500326 Ry
     estimated scf accuracy    <       0.00063562 Ry

     iteration #  7     ecut=    90.00 Ry     beta= 0.40
     Davidson diagonalization with overlap

---- Real-time Memory Report at c_bands before calling an iterative solver
           175 MiB given to the printing process from OS
             0 MiB allocation reported by mallinfo(arena+hblkhd)
        210890 MiB available memory on the node where the printing process lives
------------------
     c_bands:  2 eigenvalues not converged
     ethr =  6.11E-07,  avg # of iterations =  2.8

     total cpu time spent up to now is       48.2 secs

     total energy              =   -1998.57505829 Ry
     estimated scf accuracy    <       0.00001991 Ry

     iteration #  8     ecut=    90.00 Ry     beta= 0.40
     Davidson diagonalization with overlap

---- Real-time Memory Report at c_bands before calling an iterative solver
           175 MiB given to the printing process from OS
             0 MiB allocation reported by mallinfo(arena+hblkhd)
        210879 MiB available memory on the node where the printing process lives
------------------
     ethr =  1.91E-08,  avg # of iterations =  9.7

     total cpu time spent up to now is       57.2 secs

     total energy              =   -1998.57507891 Ry
     estimated scf accuracy    <       0.00001441 Ry

     iteration #  9     ecut=    90.00 Ry     beta= 0.40
     Davidson diagonalization with overlap

---- Real-time Memory Report at c_bands before calling an iterative solver
           176 MiB given to the printing process from OS
             0 MiB allocation reported by mallinfo(arena+hblkhd)
        214162 MiB available memory on the node where the printing process lives
------------------
     ethr =  1.39E-08,  avg # of iterations =  5.4

     total cpu time spent up to now is       63.5 secs

     total energy              =   -1998.57508484 Ry
     estimated scf accuracy    <       0.00001649 Ry

     iteration # 10     ecut=    90.00 Ry     beta= 0.40
     Davidson diagonalization with overlap

---- Real-time Memory Report at c_bands before calling an iterative solver
           176 MiB given to the printing process from OS
             0 MiB allocation reported by mallinfo(arena+hblkhd)
        214930 MiB available memory on the node where the printing process lives
------------------
     ethr =  1.39E-08,  avg # of iterations =  1.1

     total cpu time spent up to now is       67.2 secs

     total energy              =   -1998.57508240 Ry
     estimated scf accuracy    <       0.00000835 Ry

     iteration # 11     ecut=    90.00 Ry     beta= 0.40
     Davidson diagonalization with overlap

---- Real-time Memory Report at c_bands before calling an iterative solver
           177 MiB given to the printing process from OS
             0 MiB allocation reported by mallinfo(arena+hblkhd)
        211753 MiB available memory on the node where the printing process lives
------------------
     ethr =  8.03E-09,  avg # of iterations =  3.9

     total cpu time spent up to now is       71.9 secs

     total energy              =   -1998.57508322 Ry
     estimated scf accuracy    <       0.00000113 Ry

     iteration # 12     ecut=    90.00 Ry     beta= 0.40
     Davidson diagonalization with overlap

---- Real-time Memory Report at c_bands before calling an iterative solver
           177 MiB given to the printing process from OS
             0 MiB allocation reported by mallinfo(arena+hblkhd)
        217087 MiB available memory on the node where the printing process lives
------------------
     c_bands:  1 eigenvalues not converged
     ethr =  1.09E-09,  avg # of iterations =  7.8

     total cpu time spent up to now is       79.4 secs

     total energy              =   -1998.57508381 Ry
     estimated scf accuracy    <       0.00000283 Ry

     iteration # 13     ecut=    90.00 Ry     beta= 0.40
     Davidson diagonalization with overlap

---- Real-time Memory Report at c_bands before calling an iterative solver
           177 MiB given to the printing process from OS
             0 MiB allocation reported by mallinfo(arena+hblkhd)
        214900 MiB available memory on the node where the printing process lives
------------------
     ethr =  1.09E-09,  avg # of iterations =  2.3

     total cpu time spent up to now is       83.5 secs

     total energy              =   -1998.57508370 Ry
     estimated scf accuracy    <       0.00000088 Ry

     iteration # 14     ecut=    90.00 Ry     beta= 0.40
     Davidson diagonalization with overlap

---- Real-time Memory Report at c_bands before calling an iterative solver
           178 MiB given to the printing process from OS
             0 MiB allocation reported by mallinfo(arena+hblkhd)
        212766 MiB available memory on the node where the printing process lives
------------------
     ethr =  8.48E-10,  avg # of iterations =  2.9

     total cpu time spent up to now is       88.2 secs

     total energy              =   -1998.57508386 Ry
     estimated scf accuracy    <       0.00000001 Ry

     iteration # 15     ecut=    90.00 Ry     beta= 0.40
     Davidson diagonalization with overlap

---- Real-time Memory Report at c_bands before calling an iterative solver
           178 MiB given to the printing process from OS
             0 MiB allocation reported by mallinfo(arena+hblkhd)
        210694 MiB available memory on the node where the printing process lives
------------------
     c_bands:  1 eigenvalues not converged
     c_bands:  2 eigenvalues not converged
     c_bands:  1 eigenvalues not converged
     c_bands:  4 eigenvalues not converged
     ethr =  1.15E-11,  avg # of iterations = 18.3

     total cpu time spent up to now is      105.0 secs

     total energy              =   -1998.57508388 Ry
     estimated scf accuracy    <       0.00000022 Ry

     iteration # 16     ecut=    90.00 Ry     beta= 0.40
     Davidson diagonalization with overlap

---- Real-time Memory Report at c_bands before calling an iterative solver
           178 MiB given to the printing process from OS
             0 MiB allocation reported by mallinfo(arena+hblkhd)
        211700 MiB available memory on the node where the printing process lives
------------------
     ethr =  1.15E-11,  avg # of iterations =  7.2

     total cpu time spent up to now is      113.3 secs

     total energy              =   -1998.57508393 Ry
     estimated scf accuracy    <       0.00000002 Ry

     iteration # 17     ecut=    90.00 Ry     beta= 0.40
     Davidson diagonalization with overlap

---- Real-time Memory Report at c_bands before calling an iterative solver
           178 MiB given to the printing process from OS
             0 MiB allocation reported by mallinfo(arena+hblkhd)
        210679 MiB available memory on the node where the printing process lives
------------------
     ethr =  1.15E-11,  avg # of iterations =  4.6

     total cpu time spent up to now is      118.6 secs

     End of self-consistent calculation

          k = 0.0000 0.0000 0.0000 ( 28017 PWs)   bands (ev):

   -65.0573 -65.0572 -65.0572 -65.0572 -35.1698 -35.1698 -35.1698 -35.1687
   -35.1687 -35.1687 -35.1687 -35.1687 -35.1687 -35.1681 -35.1681 -35.1681
    -2.7095  -0.6224  -0.6224  -0.6224   1.3510   1.3510   1.3510   1.6063
     1.6063   1.6063   1.8614   1.8614   2.1996   2.1996   2.1996   3.1008
     3.1008   3.1008   3.1008   3.1008   3.1008   3.8346   3.8346   3.8346
     4.4567   4.4567   4.4567   4.5117   4.5117   4.5117   5.4551   5.4551
     5.4551   5.4551   5.4551   5.4551   8.4623   8.4623   8.4623  10.7789
    10.7789  10.7789  12.2784  12.2907  12.2907  12.2908

     occupation numbers 
     1.0000   1.0000   1.0000   1.0000   1.0000   1.0000   1.0000   1.0000
     1.0000   1.0000   1.0000   1.0000   1.0000   1.0000   1.0000   1.0000
     1.0000   1.0000   1.0000   1.0000   1.0000   1.0000   1.0000   1.0000
     1.0000   1.0000   1.0000   1.0000   1.0000   1.0000   1.0000   1.0000
     1.0000   1.0000   1.0000   1.0000   1.0000   1.0000   1.0000   1.0000
     1.0000   1.0000   1.0000   1.0000   1.0000   1.0000   1.0000   1.0000
     1.0000   1.0000   1.0000   1.0000   0.0000   0.0000   0.0000   0.0000
     0.0000   0.0000   0.0000   0.0000   0.0000   0.0000

          k = 0.0000 0.0000 0.1250 ( 27929 PWs)   bands (ev):

   -65.0573 -65.0572 -65.0572 -65.0572 -35.1697 -35.1697 -35.1697 -35.1687
   -35.1687 -35.1687 -35.1687 -35.1686 -35.1686 -35.1681 -35.1681 -35.1681
    -2.6556  -0.7383  -0.5721  -0.5721   1.0387   1.3866   1.3866   1.4747
     1.4747   1.7945   1.8736   2.1025   2.1025   2.1144   2.1860   2.8973
     2.8973   3.1239   3.1239   3.2874   3.2874   3.8578   4.0453   4.0453
     4.1950   4.1950   4.4513   4.4829   4.7663   4.7663   5.4354   5.4354
     5.4541   5.4541   5.4552   5.4552   8.4625   8.5798   8.5798  10.7925
    10.8081  10.8081  11.8148  11.8263  12.2418  12.2419

     occupation numbers 
     1.0000   1.0000   1.0000   1.0000   1.0000   1.0000   1.0000   1.0000
     1.0000   1.0000   1.0000   1.0000   1.0000   1.0000   1.0000   1.0000
     1.0000   1.0000   1.0000   1.0000   1.0000   1.0000   1.0000   1.0000
     1.0000   1.0000   1.0000   1.0000   1.0000   1.0000   1.0000   1.0000
     1.0000   1.0000   1.0000   1.0000   1.0000   1.0000   1.0000   1.0000
     1.0000   1.0000   1.0000   1.0000   1.0000   1.0000   1.0000   1.0000
     1.0000   1.0000   1.0000   1.0000   0.0000   0.0000   0.0000   0.0000
     0.0000   0.0000   0.0000   0.0000   0.0000   0.0000

          k = 0.0000 0.0000 0.2500 ( 27926 PWs)   bands (ev):

   -65.0573 -65.0572 -65.0572 -65.0572 -35.1696 -35.1696 -35.1695 -35.1688
   -35.1688 -35.1687 -35.1687 -35.1686 -35.1686 -35.1683 -35.1682 -35.1682
    -2.4957  -1.0585  -0.4255  -0.4255   0.8919   1.1189   1.1189   1.4926
     1.4926   1.6162   1.9084   2.0194   2.0194   2.1474   2.5461   2.5461
     2.8000   3.1932   3.1932   3.5963   3.5963   3.9217   3.9217   3.9249
     4.4025   4.4101   4.4118   4.4118   5.0150   5.0150   5.3705   5.3705
     5.4458   5.4458   5.4553   5.4553   8.4974   8.9287   8.9287  10.6896
    10.8352  10.9110  10.9110  11.4759  12.2293  12.4657

     occupation numbers 
     1.0000   1.0000   1.0000   1.0000   1.0000   1.0000   1.0000   1.0000
     1.0000   1.0000   1.0000   1.0000   1.0000   1.0000   1.0000   1.0000
     1.0000   1.0000   1.0000   1.0000   1.0000   1.0000   1.0000   1.0000
     1.0000   1.0000   1.0000   1.0000   1.0000   1.0000   1.0000   1.0000
     1.0000   1.0000   1.0000   1.0000   1.0000   1.0000   1.0000   1.0000
     1.0000   1.0000   1.0000   1.0000   1.0000   1.0000   1.0000   1.0000
     1.0000   1.0000   1.0000   1.0000   0.0000   0.0000   0.0000   0.0000
     0.0000   0.0000   0.0000   0.0000   0.0000   0.0000

          k = 0.0000 0.0000 0.3750 ( 27918 PWs)   bands (ev):

   -65.0573 -65.0572 -65.0572 -65.0572 -35.1694 -35.1694 -35.1692 -35.1690
   -35.1690 -35.1687 -35.1687 -35.1686 -35.1685 -35.1685 -35.1683 -35.1683
    -2.2355  -1.4766  -0.2029  -0.2029   0.7114   0.7114   0.9553   1.3786
     1.6673   1.6673   1.9615   1.9925   1.9925   2.0907   2.2041   2.2041
     3.3091   3.3091   3.4497   3.6771   3.6771   3.8206   3.8206   4.0281
     4.2697   4.2861   4.7616   4.7616   5.2107   5.2107   5.2458   5.2458
     5.4151   5.4151   5.4554   5.4554   8.6568   9.4668   9.4669   9.7354
    10.9131  11.1227  11.1227  11.2183  11.6925  11.9453

     occupation numbers 
     1.0000   1.0000   1.0000   1.0000   1.0000   1.0000   1.0000   1.0000
     1.0000   1.0000   1.0000   1.0000   1.0000   1.0000   1.0000   1.0000
     1.0000   1.0000   1.0000   1.0000   1.0000   1.0000   1.0000   1.0000
     1.0000   1.0000   1.0000   1.0000   1.0000   1.0000   1.0000   1.0000
     1.0000   1.0000   1.0000   1.0000   1.0000   1.0000   1.0000   1.0000
     1.0000   1.0000   1.0000   1.0000   1.0000   1.0000   1.0000   1.0000
     1.0000   1.0000   1.0000   1.0000   0.0000   0.0000   0.0000   0.0000
     0.0000   0.0000   0.0000   0.0000   0.0000   0.0000

          k = 0.0000 0.0000-0.5000 ( 27846 PWs)   bands (ev):

   -65.0573 -65.0572 -65.0572 -65.0572 -35.1692 -35.1692 -35.1692 -35.1692
   -35.1689 -35.1689 -35.1687 -35.1687 -35.1684 -35.1684 -35.1684 -35.1684
    -1.8873  -1.8873  -0.0347  -0.0347   0.4743   0.4743   1.1396   1.1396
     1.9067   1.9067   1.9067   1.9067   1.9864   1.9864   2.0253   2.0253
     3.4712   3.4712   3.4712   3.4712   3.8995   3.8995   3.9581   3.9581
     4.1543   4.1544   5.0449   5.0449   5.0449   5.0449   5.3424   5.3424
     5.3424   5.3424   5.4555   5.4555   9.0486   9.0486   9.8728   9.8728
    11.0362  11.0362  11.1287  11.1288  11.4716  11.4716

     occupation numbers 
     1.0000   1.0000   1.0000   1.0000   1.0000   1.0000   1.0000   1.0000
     1.0000   1.0000   1.0000   1.0000   1.0000   1.0000   1.0000   1.0000
     1.0000   1.0000   1.0000   1.0000   1.0000   1.0000   1.0000   1.0000
     1.0000   1.0000   1.0000   1.0000   1.0000   1.0000   1.0000   1.0000
     1.0000   1.0000   1.0000   1.0000   1.0000   1.0000   1.0000   1.0000
     1.0000   1.0000   1.0000   1.0000   1.0000   1.0000   1.0000   1.0000
     1.0000   1.0000   1.0000   1.0000   0.0000   0.0000   0.0000   0.0000
     0.0000   0.0000   0.0000   0.0000   0.0000   0.0000

          k = 0.0000 0.1250 0.1250 ( 27919 PWs)   bands (ev):

   -65.0573 -65.0572 -65.0572 -65.0572 -35.1697 -35.1697 -35.1697 -35.1688
   -35.1687 -35.1687 -35.1686 -35.1686 -35.1686 -35.1682 -35.1681 -35.1681
    -2.6018  -0.6866  -0.6866  -0.5220   1.0254   1.0254   1.3442   1.4220
     1.7736   1.8409   1.9379   1.9379   1.9855   2.1618   2.1618   2.8603
     2.9229   2.9229   3.3292   3.3292   3.4160   3.9827   4.0275   4.0652
     4.0652   4.1725   4.5488   4.6141   4.8094   4.8344   5.4224   5.4358
     5.4358   5.4497   5.4538   5.4538   8.5764   8.5764   8.6798  10.8213
    10.8213  10.8444  11.6492  11.7877  11.7877  12.3025

     occupation numbers 
     1.0000   1.0000   1.0000   1.0000   1.0000   1.0000   1.0000   1.0000
     1.0000   1.0000   1.0000   1.0000   1.0000   1.0000   1.0000   1.0000
     1.0000   1.0000   1.0000   1.0000   1.0000   1.0000   1.0000   1.0000
     1.0000   1.0000   1.0000   1.0000   1.0000   1.0000   1.0000   1.0000
     1.0000   1.0000   1.0000   1.0000   1.0000   1.0000   1.0000   1.0000
     1.0000   1.0000   1.0000   1.0000   1.0000   1.0000   1.0000   1.0000
     1.0000   1.0000   1.0000   1.0000   0.0000   0.0000   0.0000   0.0000
     0.0000   0.0000   0.0000   0.0000   0.0000   0.0000

          k = 0.0000 0.1250 0.2500 ( 27926 PWs)   bands (ev):

   -65.0573 -65.0572 -65.0572 -65.0572 -35.1696 -35.1696 -35.1695 -35.1689
   -35.1688 -35.1686 -35.1686 -35.1686 -35.1686 -35.1684 -35.1682 -35.1681
    -2.4421  -1.0056  -0.5343  -0.3757   0.8829   0.9214   0.9862   1.5275
     1.6175   1.6575   1.8529   1.8539   2.0193   2.1845   2.5748   2.6280
     2.6754   2.9994   3.4909   3.6589   3.7056   3.7116   3.7659   4.1228
     4.4264   4.4539   4.5232   4.6421   5.0104   5.0225   5.3632   5.3743
     5.4315   5.4443   5.4475   5.4528   8.6007   8.9132   8.9762  10.7194
    10.8621  10.9232  10.9702  11.4008  11.8016  12.2752

     occupation numbers 
     1.0000   1.0000   1.0000   1.0000   1.0000   1.0000   1.0000   1.0000
     1.0000   1.0000   1.0000   1.0000   1.0000   1.0000   1.0000   1.0000
     1.0000   1.0000   1.0000   1.0000   1.0000   1.0000   1.0000   1.0000
     1.0000   1.0000   1.0000   1.0000   1.0000   1.0000   1.0000   1.0000
     1.0000   1.0000   1.0000   1.0000   1.0000   1.0000   1.0000   1.0000
     1.0000   1.0000   1.0000   1.0000   1.0000   1.0000   1.0000   1.0000
     1.0000   1.0000   1.0000   1.0000   0.0000   0.0000   0.0000   0.0000
     0.0000   0.0000   0.0000   0.0000   0.0000   0.0000

          k = 0.0000 0.1250 0.3750 ( 27896 PWs)   bands (ev):

   -65.0573 -65.0572 -65.0572 -65.0572 -35.1694 -35.1694 -35.1693 -35.1691
   -35.1690 -35.1687 -35.1686 -35.1686 -35.1685 -35.1685 -35.1683 -35.1682
    -2.1822  -1.4236  -0.2937  -0.1546   0.5695   0.6404   0.9527   1.3837
     1.5887   1.7012   1.7555   1.8933   1.9880   2.2350   2.2352   2.4749
     3.0095   3.1257   3.4617   3.5159   3.8405   3.8991   3.9292   4.2116
     4.4319   4.5203   4.7705   4.7733   5.2067   5.2114   5.2433   5.2529
     5.4075   5.4119   5.4482   5.4513   8.7436   9.4227   9.4301   9.7840
    10.9346  11.1333  11.1978  11.2220  11.4881  11.6666

     occupation numbers 
     1.0000   1.0000   1.0000   1.0000   1.0000   1.0000   1.0000   1.0000
     1.0000   1.0000   1.0000   1.0000   1.0000   1.0000   1.0000   1.0000
     1.0000   1.0000   1.0000   1.0000   1.0000   1.0000   1.0000   1.0000
     1.0000   1.0000   1.0000   1.0000   1.0000   1.0000   1.0000   1.0000
     1.0000   1.0000   1.0000   1.0000   1.0000   1.0000   1.0000   1.0000
     1.0000   1.0000   1.0000   1.0000   1.0000   1.0000   1.0000   1.0000
     1.0000   1.0000   1.0000   1.0000   0.0000   0.0000   0.0000   0.0000
     0.0000   0.0000   0.0000   0.0000   0.0000   0.0000

          k = 0.0000 0.1250-0.5000 ( 27872 PWs)   bands (ev):

   -65.0572 -65.0572 -65.0572 -65.0572 -35.1692 -35.1692 -35.1692 -35.1692
   -35.1690 -35.1690 -35.1686 -35.1686 -35.1684 -35.1684 -35.1683 -35.1683
    -1.8342  -1.8342  -0.0429  -0.0429   0.3688   0.3688   1.1424   1.1424
     1.6571   1.6571   1.9394   1.9394   1.9418   1.9418   2.3264   2.3264
     3.2458   3.2458   3.2994   3.2994   3.9934   3.9934   4.2447   4.2447
     4.3202   4.3202   5.0478   5.0478   5.0528   5.0528   5.3376   5.3376
     5.3416   5.3416   5.4497   5.4497   9.1158   9.1158   9.7715   9.7715
    11.0443  11.0443  11.0898  11.0898  11.4787  11.4787

     occupation numbers 
     1.0000   1.0000   1.0000   1.0000   1.0000   1.0000   1.0000   1.0000
     1.0000   1.0000   1.0000   1.0000   1.0000   1.0000   1.0000   1.0000
     1.0000   1.0000   1.0000   1.0000   1.0000   1.0000   1.0000   1.0000
     1.0000   1.0000   1.0000   1.0000   1.0000   1.0000   1.0000   1.0000
     1.0000   1.0000   1.0000   1.0000   1.0000   1.0000   1.0000   1.0000
     1.0000   1.0000   1.0000   1.0000   1.0000   1.0000   1.0000   1.0000
     1.0000   1.0000   1.0000   1.0000   0.0000   0.0000   0.0000   0.0000
     0.0000   0.0000   0.0000   0.0000   0.0000   0.0000

          k = 0.0000 0.2500 0.2500 ( 27891 PWs)   bands (ev):

   -65.0573 -65.0572 -65.0572 -65.0572 -35.1695 -35.1695 -35.1694 -35.1690
   -35.1687 -35.1687 -35.1686 -35.1685 -35.1685 -35.1685 -35.1683 -35.1681
    -2.2829  -0.8486  -0.8486  -0.2305   0.6312   0.8243   0.8243   1.5915
     1.6314   1.6772   1.7222   1.7222   1.7235   2.5536   2.5536   2.6600
     2.6600   2.7382   3.4152   3.4950   3.8776   3.8776   4.0094   4.4684
     4.4684   4.5762   4.6545   4.9542   4.9927   5.0796   5.3267   5.3804
     5.3805   5.4325   5.4401   5.4401   8.9041   8.9041   9.1258  10.7991
    10.8482  10.9591  10.9591  11.1586  11.2758  12.2665

     occupation numbers 
     1.0000   1.0000   1.0000   1.0000   1.0000   1.0000   1.0000   1.0000
     1.0000   1.0000   1.0000   1.0000   1.0000   1.0000   1.0000   1.0000
     1.0000   1.0000   1.0000   1.0000   1.0000   1.0000   1.0000   1.0000
     1.0000   1.0000   1.0000   1.0000   1.0000   1.0000   1.0000   1.0000
     1.0000   1.0000   1.0000   1.0000   1.0000   1.0000   1.0000   1.0000
     1.0000   1.0000   1.0000   1.0000   1.0000   1.0000   1.0000   1.0000
     1.0000   1.0000   1.0000   1.0000   0.0000   0.0000   0.0000   0.0000
     0.0000   0.0000   0.0000   0.0000   0.0000   0.0000

          k = 0.0000 0.2500 0.3750 ( 27901 PWs)   bands (ev):

   -65.0573 -65.0572 -65.0572 -65.0572 -35.1694 -35.1693 -35.1693 -35.1692
   -35.1689 -35.1689 -35.1686 -35.1685 -35.1685 -35.1684 -35.1684 -35.1682
    -2.0237  -1.2662  -0.5933  -0.0277   0.2257   0.6348   0.9251   1.3979
     1.5275   1.5686   1.6915   1.7228   1.8025   2.3271   2.5716   2.6939
     2.8000   2.8343   3.1915   3.2269   4.1544   4.2463   4.2530   4.5316
     4.6621   4.7949   4.8003   4.8747   5.2044   5.2058   5.2294   5.2690
     5.3739   5.4034   5.4265   5.4344   8.9980   9.3441   9.3801   9.9327
    11.0168  11.0308  11.1613  11.1744  11.2253  11.4459

     occupation numbers 
     1.0000   1.0000   1.0000   1.0000   1.0000   1.0000   1.0000   1.0000
     1.0000   1.0000   1.0000   1.0000   1.0000   1.0000   1.0000   1.0000
     1.0000   1.0000   1.0000   1.0000   1.0000   1.0000   1.0000   1.0000
     1.0000   1.0000   1.0000   1.0000   1.0000   1.0000   1.0000   1.0000
     1.0000   1.0000   1.0000   1.0000   1.0000   1.0000   1.0000   1.0000
     1.0000   1.0000   1.0000   1.0000   1.0000   1.0000   1.0000   1.0000
     1.0000   1.0000   1.0000   1.0000   0.0000   0.0000   0.0000   0.0000
     0.0000   0.0000   0.0000   0.0000   0.0000   0.0000

          k = 0.0000 0.2500-0.5000 ( 27912 PWs)   bands (ev):

   -65.0572 -65.0572 -65.0572 -65.0572 -35.1693 -35.1693 -35.1691 -35.1691
   -35.1691 -35.1691 -35.1685 -35.1685 -35.1685 -35.1685 -35.1683 -35.1683
    -1.6765  -1.6765  -0.2549  -0.2549   0.3389   0.3389   1.1407   1.1407
     1.5053   1.5054   1.7072   1.7072   2.0367   2.0367   2.6259   2.6259
     2.9912   2.9912   3.0178   3.0178   4.2833   4.2833   4.6039   4.6039
     4.6327   4.6327   5.0535   5.0535   5.0702   5.0703   5.3266   5.3266
     5.3282   5.3283   5.4288   5.4288   9.3148   9.3148   9.5953   9.5953
    10.9817  10.9817  11.0905  11.0905  11.4895  11.4897

     occupation numbers 
     1.0000   1.0000   1.0000   1.0000   1.0000   1.0000   1.0000   1.0000
     1.0000   1.0000   1.0000   1.0000   1.0000   1.0000   1.0000   1.0000
     1.0000   1.0000   1.0000   1.0000   1.0000   1.0000   1.0000   1.0000
     1.0000   1.0000   1.0000   1.0000   1.0000   1.0000   1.0000   1.0000
     1.0000   1.0000   1.0000   1.0000   1.0000   1.0000   1.0000   1.0000
     1.0000   1.0000   1.0000   1.0000   1.0000   1.0000   1.0000   1.0000
     1.0000   1.0000   1.0000   1.0000   0.0000   0.0000   0.0000   0.0000
     0.0000   0.0000   0.0000   0.0000   0.0000   0.0000

          k = 0.0000 0.3750 0.3750 ( 27904 PWs)   bands (ev):

   -65.0572 -65.0572 -65.0572 -65.0572 -35.1693 -35.1693 -35.1693 -35.1691
   -35.1690 -35.1688 -35.1688 -35.1685 -35.1684 -35.1684 -35.1684 -35.1682
    -1.7656  -1.0097  -1.0097  -0.2579   0.2507   0.7974   0.7974   1.3743
     1.4392   1.4667   1.4881   1.4881   1.9689   2.4783   2.4783   2.7699
     2.7849   2.7849   2.9387   3.0192   4.5464   4.5464   4.6235   4.8126
     4.8272   4.8272   4.8487   5.0643   5.1783   5.1940   5.2414   5.2799
     5.2799   5.3932   5.3932   5.3997   9.3549   9.3549   9.4192  10.0499
    10.3429  10.9319  10.9319  11.1363  11.1870  11.1934

     occupation numbers 
     1.0000   1.0000   1.0000   1.0000   1.0000   1.0000   1.0000   1.0000
     1.0000   1.0000   1.0000   1.0000   1.0000   1.0000   1.0000   1.0000
     1.0000   1.0000   1.0000   1.0000   1.0000   1.0000   1.0000   1.0000
     1.0000   1.0000   1.0000   1.0000   1.0000   1.0000   1.0000   1.0000
     1.0000   1.0000   1.0000   1.0000   1.0000   1.0000   1.0000   1.0000
     1.0000   1.0000   1.0000   1.0000   1.0000   1.0000   1.0000   1.0000
     1.0000   1.0000   1.0000   1.0000   0.0000   0.0000   0.0000   0.0000
     0.0000   0.0000   0.0000   0.0000   0.0000   0.0000

          k = 0.0000 0.3750-0.5000 ( 27910 PWs)   bands (ev):

   -65.0572 -65.0572 -65.0572 -65.0572 -35.1693 -35.1693 -35.1692 -35.1692
   -35.1690 -35.1689 -35.1686 -35.1686 -35.1684 -35.1684 -35.1683 -35.1682
    -1.4195  -1.4195  -0.6651  -0.6651   0.5332   0.5332   1.0675   1.0675
     1.4244   1.4244   1.4555   1.4555   2.1966   2.1966   2.6846   2.6846
     2.7805   2.7805   2.9070   2.9070   4.6941   4.6941   4.8485   4.8485
     4.9037   4.9037   5.0488   5.0488   5.0785   5.0785   5.2606   5.2606
     5.3210   5.3210   5.3883   5.3883   9.5249   9.5249   9.5897   9.5897
    10.5916  10.5916  10.7526  10.7526  11.2050  11.2050

     occupation numbers 
     1.0000   1.0000   1.0000   1.0000   1.0000   1.0000   1.0000   1.0000
     1.0000   1.0000   1.0000   1.0000   1.0000   1.0000   1.0000   1.0000
     1.0000   1.0000   1.0000   1.0000   1.0000   1.0000   1.0000   1.0000
     1.0000   1.0000   1.0000   1.0000   1.0000   1.0000   1.0000   1.0000
     1.0000   1.0000   1.0000   1.0000   1.0000   1.0000   1.0000   1.0000
     1.0000   1.0000   1.0000   1.0000   1.0000   1.0000   1.0000   1.0000
     1.0000   1.0000   1.0000   1.0000   0.0000   0.0000   0.0000   0.0000
     0.0000   0.0000   0.0000   0.0000   0.0000   0.0000

          k = 0.0000-0.5000-0.5000 ( 27916 PWs)   bands (ev):

   -65.0572 -65.0572 -65.0572 -65.0572 -35.1693 -35.1693 -35.1693 -35.1693
   -35.1688 -35.1688 -35.1688 -35.1688 -35.1683 -35.1683 -35.1683 -35.1683
    -1.0744  -1.0744  -1.0744  -1.0744   0.8168   0.8168   0.8168   0.8168
     1.3880   1.3880   1.3880   1.3880   2.4150   2.4150   2.4150   2.4150
     2.8500   2.8500   2.8500   2.8500   4.9974   4.9974   4.9974   4.9974
     5.0140   5.0140   5.0140   5.0140   5.0821   5.0821   5.0821   5.0821
     5.3414   5.3414   5.3414   5.3414   9.6308   9.6308   9.6308   9.6308
    10.4545  10.4545  10.4545  10.4545  11.3616  11.3616

     occupation numbers 
     1.0000   1.0000   1.0000   1.0000   1.0000   1.0000   1.0000   1.0000
     1.0000   1.0000   1.0000   1.0000   1.0000   1.0000   1.0000   1.0000
     1.0000   1.0000   1.0000   1.0000   1.0000   1.0000   1.0000   1.0000
     1.0000   1.0000   1.0000   1.0000   1.0000   1.0000   1.0000   1.0000
     1.0000   1.0000   1.0000   1.0000   1.0000   1.0000   1.0000   1.0000
     1.0000   1.0000   1.0000   1.0000   1.0000   1.0000   1.0000   1.0000
     1.0000   1.0000   1.0000   1.0000   0.0000   0.0000   0.0000   0.0000
     0.0000   0.0000   0.0000   0.0000   0.0000   0.0000

          k = 0.1250 0.1250 0.1250 ( 27915 PWs)   bands (ev):

   -65.0573 -65.0572 -65.0572 -65.0572 -35.1696 -35.1696 -35.1696 -35.1687
   -35.1687 -35.1687 -35.1686 -35.1686 -35.1686 -35.1683 -35.1681 -35.1681
    -2.5481  -0.6350  -0.6350  -0.6350   0.9987   0.9987   0.9987   1.7825
     1.7825   1.8864   1.8864   1.8864   1.9787   1.9787   1.9787   2.9574
     2.9574   2.9574   3.4311   3.4311   3.4311   3.6331   4.1939   4.1939
     4.1939   4.3198   4.3198   4.8346   4.8369   4.8369   5.4231   5.4231
     5.4231   5.4488   5.4488   5.4488   8.6732   8.6732   8.6732  10.8565
    10.8565  10.8565  11.3819  11.7857  11.7857  12.3689

     occupation numbers 
     1.0000   1.0000   1.0000   1.0000   1.0000   1.0000   1.0000   1.0000
     1.0000   1.0000   1.0000   1.0000   1.0000   1.0000   1.0000   1.0000
     1.0000   1.0000   1.0000   1.0000   1.0000   1.0000   1.0000   1.0000
     1.0000   1.0000   1.0000   1.0000   1.0000   1.0000   1.0000   1.0000
     1.0000   1.0000   1.0000   1.0000   1.0000   1.0000   1.0000   1.0000
     1.0000   1.0000   1.0000   1.0000   1.0000   1.0000   1.0000   1.0000
     1.0000   1.0000   1.0000   1.0000   0.0000   0.0000   0.0000   0.0000
     0.0000   0.0000   0.0000   0.0000   0.0000   0.0000

          k = 0.1250 0.1250 0.2500 ( 27937 PWs)   bands (ev):

   -65.0573 -65.0572 -65.0572 -65.0572 -35.1695 -35.1695 -35.1695 -35.1689
   -35.1689 -35.1687 -35.1686 -35.1686 -35.1685 -35.1685 -35.1682 -35.1681
    -2.3886  -0.9529  -0.4830  -0.4830   0.8482   0.8482   0.8678   1.6193
     1.6506   1.6507   1.8075   1.9128   1.9128   1.9584   2.2924   2.8160
     2.8160   3.2856   3.2898   3.4785   3.7448   3.7448   4.0766   4.2587
     4.4243   4.4711   4.4711   4.8147   4.9839   5.0589   5.3669   5.3669
     5.4202   5.4406   5.4457   5.4457   8.6884   8.9591   8.9591  10.7195
    10.8928  10.9789  10.9789  11.2629  11.8300  12.1626

     occupation numbers 
     1.0000   1.0000   1.0000   1.0000   1.0000   1.0000   1.0000   1.0000
     1.0000   1.0000   1.0000   1.0000   1.0000   1.0000   1.0000   1.0000
     1.0000   1.0000   1.0000   1.0000   1.0000   1.0000   1.0000   1.0000
     1.0000   1.0000   1.0000   1.0000   1.0000   1.0000   1.0000   1.0000
     1.0000   1.0000   1.0000   1.0000   1.0000   1.0000   1.0000   1.0000
     1.0000   1.0000   1.0000   1.0000   1.0000   1.0000   1.0000   1.0000
     1.0000   1.0000   1.0000   1.0000   0.0000   0.0000   0.0000   0.0000
     0.0000   0.0000   0.0000   0.0000   0.0000   0.0000

          k = 0.1250 0.1250 0.3750 ( 27898 PWs)   bands (ev):

   -65.0573 -65.0572 -65.0572 -65.0572 -35.1694 -35.1694 -35.1693 -35.1690
   -35.1690 -35.1688 -35.1686 -35.1686 -35.1685 -35.1685 -35.1682 -35.1682
    -2.1289  -1.3708  -0.2424  -0.2424   0.5236   0.5236   0.9470   1.3881
     1.5959   1.5959   1.8443   1.8521   1.8521   1.9264   2.5494   2.6705
     2.6705   3.0019   3.5638   3.7594   3.8638   3.9852   3.9852   4.3435
     4.3724   4.7227   4.7826   4.7826   5.1873   5.2304   5.2501   5.2501
     5.3996   5.4094   5.4446   5.4446   8.8169   9.3891   9.3891   9.8205
    10.9527  11.1247  11.2212  11.2212  11.4960  11.4960

     occupation numbers 
     1.0000   1.0000   1.0000   1.0000   1.0000   1.0000   1.0000   1.0000
     1.0000   1.0000   1.0000   1.0000   1.0000   1.0000   1.0000   1.0000
     1.0000   1.0000   1.0000   1.0000   1.0000   1.0000   1.0000   1.0000
     1.0000   1.0000   1.0000   1.0000   1.0000   1.0000   1.0000   1.0000
     1.0000   1.0000   1.0000   1.0000   1.0000   1.0000   1.0000   1.0000
     1.0000   1.0000   1.0000   1.0000   1.0000   1.0000   1.0000   1.0000
     1.0000   1.0000   1.0000   1.0000   0.0000   0.0000   0.0000   0.0000
     0.0000   0.0000   0.0000   0.0000   0.0000   0.0000

          k = 0.1250 0.1250-0.5000 ( 27896 PWs)   bands (ev):

   -65.0572 -65.0572 -65.0572 -65.0572 -35.1693 -35.1693 -35.1691 -35.1691
   -35.1690 -35.1690 -35.1686 -35.1686 -35.1684 -35.1684 -35.1684 -35.1683
    -1.7813  -1.7813  -0.0195  -0.0195   0.2527   0.2527   1.1438   1.1438
     1.6193   1.6193   1.8084   1.8084   1.8863   1.8863   2.6157   2.6157
     2.7643   2.7643   3.6917   3.6917   4.0671   4.0671   4.1401   4.1401
     4.5458   4.5458   5.0518   5.0518   5.0592   5.0592   5.3324   5.3324
     5.3419   5.3419   5.4443   5.4443   9.1714   9.1714   9.6859   9.6859
    11.0318  11.0318  11.0551  11.0551  11.6114  11.6122

     occupation numbers 
     1.0000   1.0000   1.0000   1.0000   1.0000   1.0000   1.0000   1.0000
     1.0000   1.0000   1.0000   1.0000   1.0000   1.0000   1.0000   1.0000
     1.0000   1.0000   1.0000   1.0000   1.0000   1.0000   1.0000   1.0000
     1.0000   1.0000   1.0000   1.0000   1.0000   1.0000   1.0000   1.0000
     1.0000   1.0000   1.0000   1.0000   1.0000   1.0000   1.0000   1.0000
     1.0000   1.0000   1.0000   1.0000   1.0000   1.0000   1.0000   1.0000
     1.0000   1.0000   1.0000   1.0000   0.0000   0.0000   0.0000   0.0000
     0.0000   0.0000   0.0000   0.0000   0.0000   0.0000

          k = 0.1250 0.2500 0.2500 ( 27906 PWs)   bands (ev):

   -65.0573 -65.0572 -65.0572 -65.0572 -35.1695 -35.1695 -35.1695 -35.1689
   -35.1687 -35.1687 -35.1687 -35.1685 -35.1685 -35.1685 -35.1682 -35.1681
    -2.2296  -0.7966  -0.7966  -0.3315   0.5905   0.7856   0.7856   1.5955
     1.6466   1.6747   1.6976   1.7091   1.7091   2.0638   2.0638   2.8932
     2.9632   3.1593   3.1593   3.8781   3.8781   3.9982   4.0165   4.5240
     4.5240   4.5636   4.5954   4.9495   5.0380   5.1196   5.3314   5.3731
     5.3731   5.4310   5.4348   5.4348   8.9454   8.9454   9.1033  10.6557
    10.8827  11.0008  11.0008  11.1563  11.3458  12.0063

     occupation numbers 
     1.0000   1.0000   1.0000   1.0000   1.0000   1.0000   1.0000   1.0000
     1.0000   1.0000   1.0000   1.0000   1.0000   1.0000   1.0000   1.0000
     1.0000   1.0000   1.0000   1.0000   1.0000   1.0000   1.0000   1.0000
     1.0000   1.0000   1.0000   1.0000   1.0000   1.0000   1.0000   1.0000
     1.0000   1.0000   1.0000   1.0000   1.0000   1.0000   1.0000   1.0000
     1.0000   1.0000   1.0000   1.0000   1.0000   1.0000   1.0000   1.0000
     1.0000   1.0000   1.0000   1.0000   0.0000   0.0000   0.0000   0.0000
     0.0000   0.0000   0.0000   0.0000   0.0000   0.0000

          k = 0.1250 0.2500 0.3750 ( 27896 PWs)   bands (ev):

   -65.0573 -65.0572 -65.0572 -65.0572 -35.1695 -35.1694 -35.1694 -35.1690
   -35.1690 -35.1688 -35.1686 -35.1685 -35.1685 -35.1684 -35.1683 -35.1682
    -1.9709  -1.2142  -0.5425  -0.0912   0.2023   0.5575   0.9067   1.4001
     1.5241   1.5604   1.6786   1.7025   1.7091   1.9378   2.2132   2.5923
     2.9734   3.0314   3.4532   3.8137   4.1675   4.1852   4.2636   4.5803
     4.6213   4.8097   4.8112   4.9331   5.1820   5.2362   5.2422   5.2659
     5.3679   5.3999   5.4234   5.4288   9.0318   9.3172   9.3440   9.9322
    10.8750  11.0173  11.1627  11.3135  11.3329  11.3772

     occupation numbers 
     1.0000   1.0000   1.0000   1.0000   1.0000   1.0000   1.0000   1.0000
     1.0000   1.0000   1.0000   1.0000   1.0000   1.0000   1.0000   1.0000
     1.0000   1.0000   1.0000   1.0000   1.0000   1.0000   1.0000   1.0000
     1.0000   1.0000   1.0000   1.0000   1.0000   1.0000   1.0000   1.0000
     1.0000   1.0000   1.0000   1.0000   1.0000   1.0000   1.0000   1.0000
     1.0000   1.0000   1.0000   1.0000   1.0000   1.0000   1.0000   1.0000
     1.0000   1.0000   1.0000   1.0000   0.0000   0.0000   0.0000   0.0000
     0.0000   0.0000   0.0000   0.0000   0.0000   0.0000

          k = 0.1250 0.2500-0.5000 ( 27914 PWs)   bands (ev):

   -65.0572 -65.0572 -65.0572 -65.0572 -35.1694 -35.1694 -35.1692 -35.1692
   -35.1689 -35.1689 -35.1685 -35.1685 -35.1684 -35.1684 -35.1683 -35.1683
    -1.6242  -1.6242  -0.2045  -0.2045   0.2308   0.2308   1.1364   1.1364
     1.5043   1.5043   1.6946   1.6946   1.8098   1.8098   2.3776   2.3776
     2.9762   2.9762   3.6407   3.6407   4.3144   4.3144   4.4485   4.4485
     4.7831   4.7831   5.0573   5.0573   5.0759   5.0759   5.3183   5.3183
     5.3327   5.3327   5.4240   5.4240   9.3371   9.3371   9.5333   9.5333
    10.9622  10.9622  10.9812  10.9812  11.4691  11.5767

     occupation numbers 
     1.0000   1.0000   1.0000   1.0000   1.0000   1.0000   1.0000   1.0000
     1.0000   1.0000   1.0000   1.0000   1.0000   1.0000   1.0000   1.0000
     1.0000   1.0000   1.0000   1.0000   1.0000   1.0000   1.0000   1.0000
     1.0000   1.0000   1.0000   1.0000   1.0000   1.0000   1.0000   1.0000
     1.0000   1.0000   1.0000   1.0000   1.0000   1.0000   1.0000   1.0000
     1.0000   1.0000   1.0000   1.0000   1.0000   1.0000   1.0000   1.0000
     1.0000   1.0000   1.0000   1.0000   0.0000   0.0000   0.0000   0.0000
     0.0000   0.0000   0.0000   0.0000   0.0000   0.0000

          k = 0.1250 0.3750 0.3750 ( 27931 PWs)   bands (ev):

   -65.0572 -65.0572 -65.0572 -65.0572 -35.1695 -35.1694 -35.1694 -35.1692
   -35.1689 -35.1687 -35.1687 -35.1684 -35.1684 -35.1684 -35.1684 -35.1682
    -1.7135  -0.9594  -0.9594  -0.2137   0.1511   0.7492   0.7492   1.3668
     1.4404   1.4657   1.4828   1.4828   1.7708   2.0335   2.0335   2.3238
     3.1149   3.3004   3.3004   3.6418   4.5285   4.5285   4.6232   4.7908
     4.8536   4.8536   4.8611   5.0374   5.1858   5.2081   5.2584   5.2765
     5.2765   5.3883   5.3883   5.3952   9.3327   9.3327   9.3819   9.9776
    10.3753  10.9071  10.9071  11.1072  11.1992  11.2745

     occupation numbers 
     1.0000   1.0000   1.0000   1.0000   1.0000   1.0000   1.0000   1.0000
     1.0000   1.0000   1.0000   1.0000   1.0000   1.0000   1.0000   1.0000
     1.0000   1.0000   1.0000   1.0000   1.0000   1.0000   1.0000   1.0000
     1.0000   1.0000   1.0000   1.0000   1.0000   1.0000   1.0000   1.0000
     1.0000   1.0000   1.0000   1.0000   1.0000   1.0000   1.0000   1.0000
     1.0000   1.0000   1.0000   1.0000   1.0000   1.0000   1.0000   1.0000
     1.0000   1.0000   1.0000   1.0000   0.0000   0.0000   0.0000   0.0000
     0.0000   0.0000   0.0000   0.0000   0.0000   0.0000

          k = 0.1250 0.3750-0.5000 ( 27932 PWs)   bands (ev):

   -65.0572 -65.0572 -65.0572 -65.0572 -35.1695 -35.1695 -35.1693 -35.1693
   -35.1688 -35.1688 -35.1685 -35.1685 -35.1684 -35.1684 -35.1683 -35.1683
    -1.3683  -1.3683  -0.6179  -0.6179   0.4559   0.4559   1.0430   1.0430
     1.4235   1.4235   1.4524   1.4524   1.8911   1.8911   2.1554   2.1554
     3.1986   3.1986   3.4787   3.4787   4.6987   4.6987   4.7948   4.7948
     4.9493   4.9493   5.0548   5.0548   5.0810   5.0810   5.2560   5.2560
     5.3208   5.3208   5.3828   5.3828   9.4765   9.4765   9.5619   9.5619
    10.5773  10.5773  10.7490  10.7490  11.2366  11.2366

     occupation numbers 
     1.0000   1.0000   1.0000   1.0000   1.0000   1.0000   1.0000   1.0000
     1.0000   1.0000   1.0000   1.0000   1.0000   1.0000   1.0000   1.0000
     1.0000   1.0000   1.0000   1.0000   1.0000   1.0000   1.0000   1.0000
     1.0000   1.0000   1.0000   1.0000   1.0000   1.0000   1.0000   1.0000
     1.0000   1.0000   1.0000   1.0000   1.0000   1.0000   1.0000   1.0000
     1.0000   1.0000   1.0000   1.0000   1.0000   1.0000   1.0000   1.0000
     1.0000   1.0000   1.0000   1.0000   0.0000   0.0000   0.0000   0.0000
     0.0000   0.0000   0.0000   0.0000   0.0000   0.0000

          k = 0.1250-0.5000-0.5000 ( 27932 PWs)   bands (ev):

   -65.0572 -65.0572 -65.0572 -65.0572 -35.1694 -35.1694 -35.1694 -35.1694
   -35.1687 -35.1687 -35.1687 -35.1687 -35.1683 -35.1683 -35.1683 -35.1683
    -1.0250  -1.0250  -1.0250  -1.0250   0.7628   0.7628   0.7628   0.7628
     1.3879   1.3879   1.3879   1.3879   2.0077   2.0077   2.0077   2.0077
     3.3403   3.3403   3.3403   3.3403   4.9965   4.9965   4.9965   4.9965
     5.0144   5.0144   5.0144   5.0144   5.0817   5.0817   5.0817   5.0817
     5.3367   5.3367   5.3367   5.3367   9.5800   9.5800   9.5800   9.5800
    10.4635  10.4635  10.4635  10.4635  11.3377  11.3377

     occupation numbers 
     1.0000   1.0000   1.0000   1.0000   1.0000   1.0000   1.0000   1.0000
     1.0000   1.0000   1.0000   1.0000   1.0000   1.0000   1.0000   1.0000
     1.0000   1.0000   1.0000   1.0000   1.0000   1.0000   1.0000   1.0000
     1.0000   1.0000   1.0000   1.0000   1.0000   1.0000   1.0000   1.0000
     1.0000   1.0000   1.0000   1.0000   1.0000   1.0000   1.0000   1.0000
     1.0000   1.0000   1.0000   1.0000   1.0000   1.0000   1.0000   1.0000
     1.0000   1.0000   1.0000   1.0000   0.0000   0.0000   0.0000   0.0000
[...]
     atom    8 type  2   force =    -0.00000000   -0.00000000    0.00000000
     atom    9 type  1   force =    -0.00000000   -0.00000000   -2.45700671
     atom   10 type  1   force =    -0.00000000    2.45700671    0.00000000
     atom   11 type  1   force =     2.45700671   -0.00000000    0.00000000
     atom   12 type  1   force =    -0.00000000   -0.00000000    2.45700671
     atom   13 type  1   force =     0.00000000   -2.45700671   -0.00000000
     atom   14 type  1   force =    -2.45700671    0.00000000    0.00000000
     atom   15 type  1   force =    -0.00000000    0.00000000   -2.45700671
     atom   16 type  1   force =    -0.00000000    2.45700671   -0.00000000
     atom   17 type  1   force =     2.45700671   -0.00000000   -0.00000000
     atom   18 type  1   force =    -0.00000000    0.00000000    2.45700671
     atom   19 type  1   force =     0.00000000   -2.45700671    0.00000000
     atom   20 type  1   force =    -2.45700671    0.00000000   -0.00000000
     atom   21 type  1   force =     0.00000000   -0.00000000   -2.45700671
     atom   22 type  1   force =     0.00000000    2.45700671   -0.00000000
     atom   23 type  1   force =     2.45700671   -0.00000000   -0.00000000
     atom   24 type  1   force =     0.00000000   -0.00000000    2.45700671
     atom   25 type  1   force =     0.00000000   -2.45700671   -0.00000000
     atom   26 type  1   force =    -2.45700671    0.00000000   -0.00000000
     atom   27 type  1   force =    -0.00000000   -0.00000000   -2.45700671
     atom   28 type  1   force =    -0.00000000    2.45700671    0.00000000
     atom   29 type  1   force =     2.45700671   -0.00000000    0.00000000
     atom   30 type  1   force =     0.00000000    0.00000000    2.45700671
     atom   31 type  1   force =     0.00000000   -2.45700671   -0.00000000
     atom   32 type  1   force =    -2.45700671    0.00000000   -0.00000000
     atom   33 type  3   force =    -0.00000000   -0.00000000   -0.00000000
     atom   34 type  3   force =    -0.00000000    0.00000000    0.00000000
     atom   35 type  3   force =     0.00000000   -0.00000000    0.00000000
     atom   36 type  3   force =     0.00000000    0.00000000   -0.00000000
     The local contribution  to forces
     atom    1 type  2   force =     0.00000014   -0.00000014    0.00000014
     atom    2 type  2   force =    -0.00000014   -0.00000014    0.00000014
     atom    3 type  2   force =     0.00000014    0.00000014   -0.00000014
     atom    4 type  2   force =    -0.00000014    0.00000014   -0.00000014
     atom    5 type  2   force =    -0.00000014   -0.00000014   -0.00000014
     atom    6 type  2   force =     0.00000014   -0.00000014   -0.00000014
     atom    7 type  2   force =    -0.00000014    0.00000014    0.00000014
     atom    8 type  2   force =     0.00000014    0.00000014    0.00000014
     atom    9 type  1   force =     0.00000000    0.00000000    2.43090715
     atom   10 type  1   force =     0.00000000   -2.43090885   -0.00000000
     atom   11 type  1   force =    -2.43090885    0.00000000   -0.00000000
     atom   12 type  1   force =     0.00000000    0.00000000   -2.43090715
     atom   13 type  1   force =     0.00000000    2.43090715    0.00000000
     atom   14 type  1   force =     2.43090885   -0.00000000    0.00000000
     atom   15 type  1   force =     0.00000000    0.00000000    2.43090885
     atom   16 type  1   force =    -0.00000000   -2.43090715    0.00000000
     atom   17 type  1   force =    -2.43090885   -0.00000000    0.00000000
     atom   18 type  1   force =     0.00000000   -0.00000000   -2.43090885
     atom   19 type  1   force =    -0.00000000    2.43090885    0.00000000
     atom   20 type  1   force =     2.43090885    0.00000000    0.00000000
     atom   21 type  1   force =     0.00000000    0.00000000    2.43090885
     atom   22 type  1   force =     0.00000000   -2.43090885    0.00000000
     atom   23 type  1   force =    -2.43090715   -0.00000000    0.00000000
     atom   24 type  1   force =    -0.00000000    0.00000000   -2.43090885
     atom   25 type  1   force =     0.00000000    2.43090877    0.00000000
     atom   26 type  1   force =     2.43090715    0.00000000    0.00000000
     atom   27 type  1   force =     0.00000000    0.00000000    2.43090877
     atom   28 type  1   force =    -0.00000000   -2.43090877    0.00000000
     atom   29 type  1   force =    -2.43090877    0.00000000    0.00000000
     atom   30 type  1   force =     0.00000000    0.00000000   -2.43090877
     atom   31 type  1   force =    -0.00000000    2.43090885    0.00000000
     atom   32 type  1   force =     2.43090877   -0.00000000    0.00000000
     atom   33 type  3   force =     0.00000000    0.00000000    0.00000000
     atom   34 type  3   force =     0.00000000    0.00000000    0.00000000
     atom   35 type  3   force =     0.00000000    0.00000000    0.00000000
     atom   36 type  3   force =     0.00000000    0.00000000    0.00000000
     The core correction contribution to forces
     atom    1 type  2   force =    -0.00000001    0.00000001   -0.00000001
     atom    2 type  2   force =     0.00000001    0.00000001   -0.00000001
     atom    3 type  2   force =    -0.00000001   -0.00000001    0.00000001
     atom    4 type  2   force =     0.00000001   -0.00000001    0.00000001
     atom    5 type  2   force =     0.00000001    0.00000001    0.00000001
     atom    6 type  2   force =    -0.00000001    0.00000001    0.00000001
     atom    7 type  2   force =     0.00000001   -0.00000001   -0.00000001
     atom    8 type  2   force =    -0.00000001   -0.00000001   -0.00000001
     atom    9 type  1   force =     0.00000000    0.00000000    0.00000000
     atom   10 type  1   force =     0.00000000    0.00000000    0.00000000
     atom   11 type  1   force =     0.00000000    0.00000000    0.00000000
     atom   12 type  1   force =     0.00000000    0.00000000    0.00000000
     atom   13 type  1   force =     0.00000000    0.00000000    0.00000000
     atom   14 type  1   force =     0.00000000    0.00000000    0.00000000
     atom   15 type  1   force =     0.00000000    0.00000000    0.00000000
     atom   16 type  1   force =     0.00000000    0.00000000    0.00000000
     atom   17 type  1   force =     0.00000000    0.00000000    0.00000000
     atom   18 type  1   force =     0.00000000    0.00000000    0.00000000
     atom   19 type  1   force =     0.00000000    0.00000000    0.00000000
     atom   20 type  1   force =     0.00000000    0.00000000    0.00000000
     atom   21 type  1   force =     0.00000000    0.00000000    0.00000000
     atom   22 type  1   force =     0.00000000    0.00000000    0.00000000
     atom   23 type  1   force =     0.00000000    0.00000000    0.00000000
     atom   24 type  1   force =     0.00000000    0.00000000    0.00000000
     atom   25 type  1   force =     0.00000000    0.00000000    0.00000000
     atom   26 type  1   force =     0.00000000    0.00000000    0.00000000
     atom   27 type  1   force =     0.00000000    0.00000000    0.00000000
     atom   28 type  1   force =     0.00000000    0.00000000    0.00000000
     atom   29 type  1   force =     0.00000000    0.00000000    0.00000000
     atom   30 type  1   force =     0.00000000    0.00000000    0.00000000
     atom   31 type  1   force =     0.00000000    0.00000000    0.00000000
     atom   32 type  1   force =     0.00000000    0.00000000    0.00000000
     atom   33 type  3   force =     0.00000000    0.00000000   -0.00000000
     atom   34 type  3   force =     0.00000000    0.00000000    0.00000000
     atom   35 type  3   force =     0.00000000    0.00000000    0.00000000
     atom   36 type  3   force =     0.00000000    0.00000000   -0.00000000
     The Hubbard contrib.    to forces
     atom    1 type  2   force =     0.00000000    0.00000000    0.00000000
     atom    2 type  2   force =     0.00000000    0.00000000    0.00000000
     atom    3 type  2   force =     0.00000000    0.00000000    0.00000000
     atom    4 type  2   force =     0.00000000    0.00000000    0.00000000
     atom    5 type  2   force =     0.00000000    0.00000000    0.00000000
     atom    6 type  2   force =     0.00000000    0.00000000    0.00000000
     atom    7 type  2   force =     0.00000000    0.00000000    0.00000000
     atom    8 type  2   force =     0.00000000    0.00000000    0.00000000
     atom    9 type  1   force =     0.00000000    0.00000000    0.00000000
     atom   10 type  1   force =     0.00000000    0.00000000    0.00000000
     atom   11 type  1   force =     0.00000000    0.00000000    0.00000000
     atom   12 type  1   force =     0.00000000    0.00000000    0.00000000
     atom   13 type  1   force =     0.00000000    0.00000000    0.00000000
     atom   14 type  1   force =     0.00000000    0.00000000    0.00000000
     atom   15 type  1   force =     0.00000000    0.00000000    0.00000000
     atom   16 type  1   force =     0.00000000    0.00000000    0.00000000
     atom   17 type  1   force =     0.00000000    0.00000000    0.00000000
     atom   18 type  1   force =     0.00000000    0.00000000    0.00000000
     atom   19 type  1   force =     0.00000000    0.00000000    0.00000000
     atom   20 type  1   force =     0.00000000    0.00000000    0.00000000
     atom   21 type  1   force =     0.00000000    0.00000000    0.00000000
     atom   22 type  1   force =     0.00000000    0.00000000    0.00000000
     atom   23 type  1   force =     0.00000000    0.00000000    0.00000000
     atom   24 type  1   force =     0.00000000    0.00000000    0.00000000
     atom   25 type  1   force =     0.00000000    0.00000000    0.00000000
     atom   26 type  1   force =     0.00000000    0.00000000    0.00000000
     atom   27 type  1   force =     0.00000000    0.00000000    0.00000000
     atom   28 type  1   force =     0.00000000    0.00000000    0.00000000
     atom   29 type  1   force =     0.00000000    0.00000000    0.00000000
     atom   30 type  1   force =     0.00000000    0.00000000    0.00000000
     atom   31 type  1   force =     0.00000000    0.00000000    0.00000000
     atom   32 type  1   force =     0.00000000    0.00000000    0.00000000
     atom   33 type  3   force =     0.00000000    0.00000000    0.00000000
     atom   34 type  3   force =     0.00000000    0.00000000    0.00000000
     atom   35 type  3   force =     0.00000000    0.00000000    0.00000000
     atom   36 type  3   force =     0.00000000    0.00000000    0.00000000
     The SCF correction term to forces
     atom    1 type  2   force =    -0.00000028    0.00000028   -0.00000028
     atom    2 type  2   force =     0.00000028    0.00000028   -0.00000028
     atom    3 type  2   force =    -0.00000028   -0.00000028    0.00000028
     atom    4 type  2   force =     0.00000028   -0.00000028    0.00000028
     atom    5 type  2   force =     0.00000028    0.00000028    0.00000028
     atom    6 type  2   force =    -0.00000028    0.00000028    0.00000028
     atom    7 type  2   force =     0.00000028   -0.00000028   -0.00000028
     atom    8 type  2   force =    -0.00000028   -0.00000028   -0.00000028
     atom    9 type  1   force =     0.00000000    0.00000000   -0.00000145
     atom   10 type  1   force =    -0.00000000    0.00000281    0.00000000
     atom   11 type  1   force =     0.00000281    0.00000000    0.00000000
     atom   12 type  1   force =     0.00000000   -0.00000000    0.00000145
     atom   13 type  1   force =     0.00000000   -0.00000145   -0.00000000
     atom   14 type  1   force =    -0.00000281   -0.00000000    0.00000000
     atom   15 type  1   force =     0.00000000    0.00000000   -0.00000281
     atom   16 type  1   force =     0.00000000    0.00000145   -0.00000000
     atom   17 type  1   force =     0.00000281   -0.00000000   -0.00000000
     atom   18 type  1   force =    -0.00000000    0.00000000    0.00000281
     atom   19 type  1   force =    -0.00000000   -0.00000281    0.00000000
     atom   20 type  1   force =    -0.00000281   -0.00000000   -0.00000000
     atom   21 type  1   force =     0.00000000    0.00000000   -0.00000281
     atom   22 type  1   force =     0.00000000    0.00000281   -0.00000000
     atom   23 type  1   force =     0.00000145   -0.00000000   -0.00000000
     atom   24 type  1   force =    -0.00000000    0.00000000    0.00000281
     atom   25 type  1   force =     0.00000000   -0.00000275   -0.00000000
     atom   26 type  1   force =    -0.00000145   -0.00000000   -0.00000000
     atom   27 type  1   force =     0.00000000   -0.00000000   -0.00000275
     atom   28 type  1   force =     0.00000000    0.00000275   -0.00000000
     atom   29 type  1   force =     0.00000275    0.00000000   -0.00000000
     atom   30 type  1   force =    -0.00000000    0.00000000    0.00000275
     atom   31 type  1   force =     0.00000000   -0.00000281   -0.00000000
     atom   32 type  1   force =    -0.00000275   -0.00000000   -0.00000000
     atom   33 type  3   force =     0.00000000   -0.00000000   -0.00000000
     atom   34 type  3   force =    -0.00000000    0.00000000    0.00000000
     atom   35 type  3   force =    -0.00000000   -0.00000000    0.00000000
     atom   36 type  3   force =    -0.00000000   -0.00000000   -0.00000000

     Total force =     0.017961     Total SCF correction =     0.000012


     Computing stress (Cartesian axis) and pressure

          total   stress  (Ry/bohr**3)                   (kbar)     P=       -2.60
  -0.00001768   0.00000000   0.00000000           -2.60        0.00        0.00
   0.00000000  -0.00001768   0.00000000            0.00       -2.60        0.00
   0.00000000   0.00000000  -0.00001768            0.00        0.00       -2.60

     kinetic stress (kbar)   6460.87      0.00      0.00
                                0.00   6460.87      0.00
                                0.00      0.00   6460.87

     local   stress (kbar)  -4065.02     -0.00      0.00
                               -0.00  -4065.02      0.00
                                0.00      0.00  -4065.02

     nonloc. stress (kbar)   4404.33      0.00      0.00
                                0.00   4404.33      0.00
                                0.00      0.00   4404.33

     hartree stress (kbar)   7254.96      0.00     -0.00
                                0.00   7254.96     -0.00
                               -0.00     -0.00   7254.96

     exc-cor stress (kbar)  -2042.30      0.00      0.00
                                0.00  -2042.30      0.00
                                0.00      0.00  -2042.30

     corecor stress (kbar)   -444.41      0.00     -0.00
                                0.00   -444.41     -0.00
                               -0.00     -0.00   -444.41

     ewald   stress (kbar) -11571.03      0.00      0.00
                                0.00 -11571.03      0.00
                                0.00      0.00 -11571.03

     hubbard stress (kbar)      0.00      0.00      0.00
                                0.00      0.00      0.00
                                0.00      0.00      0.00

     DFT-D   stress (kbar)      0.00      0.00      0.00
                                0.00      0.00      0.00
                                0.00      0.00      0.00

     XDM     stress (kbar)      0.00      0.00      0.00
                                0.00      0.00      0.00
                                0.00      0.00      0.00

     dft-nl  stress (kbar)      0.00      0.00      0.00
                                0.00      0.00      0.00
                                0.00      0.00      0.00

     TS-vdW  stress (kbar)      0.00      0.00      0.00
                                0.00      0.00      0.00
                                0.00      0.00      0.00

     MDB     stress (kbar)      0.00      0.00      0.00
                                0.00      0.00      0.00
                                0.00      0.00      0.00

     3D-RISM stress (kbar)      0.00      0.00      0.00
                                0.00      0.00      0.00
                                0.00      0.00      0.00


     Writing all to output data dir ./out/ru-kp-8.save/

     init_run     :      3.73s CPU      4.32s WALL (       1 calls)
     electrons    :     95.46s CPU    113.99s WALL (       1 calls)
     forces       :      1.07s CPU      1.25s WALL (       1 calls)
     stress       :      7.01s CPU      7.23s WALL (       1 calls)

     Called by init_run:
     wfcinit      :      2.22s CPU      2.53s WALL (       1 calls)
     wfcinit:atom :      0.03s CPU      0.03s WALL (      18 calls)
     wfcinit:wfcr :      2.04s CPU      2.35s WALL (      18 calls)
     potinit      :      0.53s CPU      0.69s WALL (       1 calls)
     hinit0       :      0.40s CPU      0.46s WALL (       1 calls)

     Called by electrons:
     c_bands      :     80.77s CPU     93.94s WALL (      17 calls)
     sum_band     :     10.05s CPU     12.21s WALL (      17 calls)
     v_of_rho     :      1.29s CPU      1.54s WALL (      18 calls)
     v_h          :      0.12s CPU      0.15s WALL (      18 calls)
     v_xc         :      1.32s CPU      1.54s WALL (      20 calls)
     newd         :      1.83s CPU      2.42s WALL (      18 calls)
     PAW_pot      :      1.42s CPU      3.70s WALL (      18 calls)
     mix_rho      :      0.17s CPU      0.23s WALL (      17 calls)

     Called by c_bands:
     init_us_2    :      1.09s CPU      1.16s WALL (     666 calls)
     init_us_2:cp :      1.08s CPU      1.16s WALL (     666 calls)
     cegterg      :     77.15s CPU     86.25s WALL (     306 calls)

     Called by sum_band:
     sum_band:wei :      0.00s CPU      0.01s WALL (      17 calls)
     sum_band:loo :      7.80s CPU      9.11s WALL (      17 calls)
     sum_band:buf :      0.17s CPU      0.18s WALL (     306 calls)
     sum_band:ini :      0.44s CPU      0.46s WALL (     306 calls)
     sum_band:cal :      1.30s CPU      1.57s WALL (     306 calls)
     sum_band:bec :      0.04s CPU      0.04s WALL (     306 calls)
     addusdens    :      2.07s CPU      2.82s WALL (      17 calls)
                                        0.00s GPU  (      17 calls)
     addusd:skk   :      0.12s CPU      0.13s WALL (      51 calls)
                                        0.00s GPU  (      51 calls)

     Called by *egterg:
     cdiaghg      :      9.90s CPU     10.49s WALL (    2242 calls)
     cegterg:over :      3.94s CPU      4.48s WALL (    1936 calls)
     cegterg:upda :      2.57s CPU      2.65s WALL (    1936 calls)
     cegterg:last :      5.25s CPU      5.27s WALL (     956 calls)
     h_psi        :     51.11s CPU     58.94s WALL (    2260 calls)
     s_psi        :      3.85s CPU      3.91s WALL (    2260 calls)
     g_psi        :      0.14s CPU      0.14s WALL (    1936 calls)

     Called by h_psi:
     h_psi:calbec :      6.80s CPU      7.87s WALL (    2260 calls)
     vloc_psi     :     39.52s CPU     46.09s WALL (    2260 calls)
     add_vuspsi   :      4.36s CPU      4.53s WALL (    2260 calls)

     General routines
     calbec       :      8.41s CPU      9.94s WALL (    2656 calls)
     fft          :      0.97s CPU      1.32s WALL (     257 calls)
     ffts         :      0.17s CPU      0.18s WALL (      35 calls)
     fftw         :     36.33s CPU     42.53s WALL (  152048 calls)
     interpolate  :      0.23s CPU      0.26s WALL (      18 calls)

     Parallel routines

     PAW routines
     PAW_pot      :      1.42s CPU      3.70s WALL (      18 calls)
     PAW_symme    :      0.01s CPU      0.02s WALL (      35 calls)

     PWSCF        :   1m48.10s CPU   2m 9.15s WALL


   This run was terminated on:  22:43:22  13Jun2025            

=------------------------------------------------------------------------------=
   JOB DONE.
=------------------------------------------------------------------------------=
