
     Program PWSCF v.7.2 starts on 13Jun2025 at 22:39: 1 

     This program is part of the open-source Quantum ESPRESSO suite
     for quantum simulation of materials; please cite
         "P. Giannozzi et al., J. Phys.:Condens. Matter 21 395502 (2009);
         "P. Giannozzi et al., J. Phys.:Condens. Matter 29 465901 (2017);
         "P. Giannozzi et al., J. Chem. Phys. 152 154105 (2020);
          URL http://www.quantum-espresso.org", 
     in publications or presentations arising from this work. More details at
     http://www.quantum-espresso.org/quote

     Parallel version (MPI & OpenMP), running on      64 processor cores
     Number of MPI processes:                64
     Threads/MPI process:                     1

     MPI processes distributed on     1 nodes
     219311 MiB available memory on the printing compute node when the environment starts

     Reading input from ru_kp_6.in

     Current dimensions of program PWSCF are:
     Max number of different atomic species (ntypx) = 10
     Max number of k-points (npk) =  40000
     Max angular momentum in pseudopotentials (lmaxx) =  4
     Message from routine read_pp_mesh:
     mismatch in mesh size, discarding the one in header
     file Mg.pbesol-n-kjpaw_psl.0.3.0.UPF: wavefunction(s)  3S renormalized
     Found identity + (  0.0000  0.5000 -0.5000) symmetry
     This is a supercell, fractional translations are disabled
     Message from routine setup:
     using ibrav=0 with symmetry is DISCOURAGED, use correct ibrav instead

     K-points division:     npool     =       2
     R & G space division:  proc/nbgrp/npool/nimage =      32
     Subspace diagonalization in iterative solution of the eigenvalue problem:
     a serial algorithm will be used


     Parallelization info
     --------------------
     sticks:   dense  smooth     PW     G-vecs:    dense   smooth      PW
     Min         416     138     37                36246     6970     993
     Max         417     139     38                36253     6975    1000
     Sum       13341    4445   1209              1160031   223135   31919

     Using Slab Decomposition



     bravais-lattice index     =            0
     lattice parameter (alat)  =      12.4630  a.u.
     unit-cell volume          =    1935.8122 (a.u.)^3
     number of atoms/cell      =           36
     number of atomic types    =            3
     number of electrons       =       104.00
     number of Kohn-Sham states=           62
     kinetic-energy cutoff     =      90.0000  Ry
     charge density cutoff     =    1080.0000  Ry
     scf convergence threshold =      7.2E-09
     mixing beta               =       0.4000
     number of iterations used =            8  plain     mixing
     Exchange-correlation= SLA PW PSX PSC
                           (   1   4  10   8   0   0   0)

     celldm(1)=  12.462956  celldm(2)=   0.000000  celldm(3)=   0.000000
     celldm(4)=   0.000000  celldm(5)=   0.000000  celldm(6)=   0.000000

     crystal axes: (cart. coord. in units of alat)
               a(1) = (   1.000000   0.000000   0.000000 )  
               a(2) = (   0.000000   1.000000   0.000000 )  
               a(3) = (   0.000000   0.000000   1.000000 )  

     reciprocal axes: (cart. coord. in units 2 pi/alat)
               b(1) = (  1.000000  0.000000  0.000000 )  
               b(2) = (  0.000000  1.000000  0.000000 )  
               b(3) = (  0.000000  0.000000  1.000000 )  


     PseudoPot. # 1 for H  read from file:
     ./pseudo/H.pbesol-rrkjus_psl.1.0.0.UPF
     MD5 check sum: 0324ed591cc0147dc3d88cad0d33f665
     Pseudo is Ultrasoft, Zval =  1.0
     Generated using "atomic" code by A. Dal Corso  v.6.0 svn rev. 13079
     Using radial grid of  929 points,  2 beta functions with: 
                l(1) =   0
                l(2) =   0
     Q(r) pseudized with 0 coefficients 


     PseudoPot. # 2 for Mg read from file:
     ./pseudo/Mg.pbesol-n-kjpaw_psl.0.3.0.UPF
     MD5 check sum: a6c8d2ff726a5f7005dea00130d82930
     Pseudo is Projector augmented-wave + core cor, Zval =  2.0
     Generated using "atomic" code by A. Dal Corso  v.6.1 svn rev. 13369
     Shape of augmentation charge: PSQ
     Using radial grid of 1129 points,  4 beta functions with: 
                l(1) =   0
                l(2) =   0
                l(3) =   1
                l(4) =   1
     Q(r) pseudized with 0 coefficients 


     PseudoPot. # 3 for Ru read from file:
     ./pseudo/Ru.upf
     MD5 check sum: be3bb57e49b2afd7571f8dd5d9c7d987
     Pseudo is Projector augmented-wave + core cor, Zval = 16.0
     Generated using ATOMPAW code
     Shape of augmentation charge: SINC**2
     Using radial grid of 2342 points,  6 beta functions with: 
                l(1) =   0
                l(2) =   0
                l(3) =   1
                l(4) =   1
                l(5) =   2
                l(6) =   2
     Q(r) pseudized with 0 coefficients 


     atomic species   valence    mass     pseudopotential
        H              1.00     1.00794     H ( 1.00)
        Mg             2.00    24.30500     Mg( 1.00)
        Ru            16.00   101.07000     Ru( 1.00)

     48 Sym. Ops., with inversion, found


                                    s                        frac. trans.

      isym =  1     identity                                     

 cryst.   s( 1) = (     1          0          0      )
                  (     0          1          0      )
                  (     0          0          1      )

 cart.    s( 1) = (  1.0000000  0.0000000  0.0000000 )
                  (  0.0000000  1.0000000  0.0000000 )
                  (  0.0000000  0.0000000  1.0000000 )


      isym =  2     180 deg rotation - cart. axis [0,0,1]        

 cryst.   s( 2) = (    -1          0          0      )
                  (     0         -1          0      )
                  (     0          0          1      )

 cart.    s( 2) = ( -1.0000000  0.0000000  0.0000000 )
                  (  0.0000000 -1.0000000  0.0000000 )
                  (  0.0000000  0.0000000  1.0000000 )


      isym =  3     180 deg rotation - cart. axis [0,1,0]        

 cryst.   s( 3) = (    -1          0          0      )
                  (     0          1          0      )
                  (     0          0         -1      )

 cart.    s( 3) = ( -1.0000000  0.0000000  0.0000000 )
                  (  0.0000000  1.0000000  0.0000000 )
                  (  0.0000000  0.0000000 -1.0000000 )


      isym =  4     180 deg rotation - cart. axis [1,0,0]        

 cryst.   s( 4) = (     1          0          0      )
                  (     0         -1          0      )
                  (     0          0         -1      )

 cart.    s( 4) = (  1.0000000  0.0000000  0.0000000 )
                  (  0.0000000 -1.0000000  0.0000000 )
                  (  0.0000000  0.0000000 -1.0000000 )


      isym =  5     180 deg rotation - cart. axis [1,1,0]        

 cryst.   s( 5) = (     0          1          0      )
                  (     1          0          0      )
                  (     0          0         -1      )

 cart.    s( 5) = (  0.0000000  1.0000000  0.0000000 )
                  (  1.0000000  0.0000000  0.0000000 )
                  (  0.0000000  0.0000000 -1.0000000 )


      isym =  6     180 deg rotation - cart. axis [1,-1,0]       

 cryst.   s( 6) = (     0         -1          0      )
                  (    -1          0          0      )
                  (     0          0         -1      )

 cart.    s( 6) = (  0.0000000 -1.0000000  0.0000000 )
                  ( -1.0000000  0.0000000  0.0000000 )
                  (  0.0000000  0.0000000 -1.0000000 )


      isym =  7      90 deg rotation - cart. axis [0,0,-1]       

 cryst.   s( 7) = (     0         -1          0      )
                  (     1          0          0      )
                  (     0          0          1      )

 cart.    s( 7) = (  0.0000000  1.0000000  0.0000000 )
                  ( -1.0000000  0.0000000  0.0000000 )
                  (  0.0000000  0.0000000  1.0000000 )


      isym =  8      90 deg rotation - cart. axis [0,0,1]        

 cryst.   s( 8) = (     0          1          0      )
                  (    -1          0          0      )
                  (     0          0          1      )

 cart.    s( 8) = (  0.0000000 -1.0000000  0.0000000 )
                  (  1.0000000  0.0000000  0.0000000 )
                  (  0.0000000  0.0000000  1.0000000 )


      isym =  9     180 deg rotation - cart. axis [1,0,1]        

 cryst.   s( 9) = (     0          0          1      )
                  (     0         -1          0      )
                  (     1          0          0      )

 cart.    s( 9) = (  0.0000000  0.0000000  1.0000000 )
                  (  0.0000000 -1.0000000  0.0000000 )
                  (  1.0000000  0.0000000  0.0000000 )


      isym = 10     180 deg rotation - cart. axis [-1,0,1]       

 cryst.   s(10) = (     0          0         -1      )
                  (     0         -1          0      )
                  (    -1          0          0      )

 cart.    s(10) = (  0.0000000  0.0000000 -1.0000000 )
                  (  0.0000000 -1.0000000  0.0000000 )
                  ( -1.0000000  0.0000000  0.0000000 )


      isym = 11      90 deg rotation - cart. axis [0,1,0]        

 cryst.   s(11) = (     0          0         -1      )
                  (     0          1          0      )
                  (     1          0          0      )

 cart.    s(11) = (  0.0000000  0.0000000  1.0000000 )
                  (  0.0000000  1.0000000  0.0000000 )
                  ( -1.0000000  0.0000000  0.0000000 )


      isym = 12      90 deg rotation - cart. axis [0,-1,0]       

 cryst.   s(12) = (     0          0          1      )
                  (     0          1          0      )
                  (    -1          0          0      )

 cart.    s(12) = (  0.0000000  0.0000000 -1.0000000 )
                  (  0.0000000  1.0000000  0.0000000 )
                  (  1.0000000  0.0000000  0.0000000 )


      isym = 13     180 deg rotation - cart. axis [0,1,1]        

 cryst.   s(13) = (    -1          0          0      )
                  (     0          0          1      )
                  (     0          1          0      )

 cart.    s(13) = ( -1.0000000  0.0000000  0.0000000 )
                  (  0.0000000  0.0000000  1.0000000 )
                  (  0.0000000  1.0000000  0.0000000 )


      isym = 14     180 deg rotation - cart. axis [0,1,-1]       

 cryst.   s(14) = (    -1          0          0      )
                  (     0          0         -1      )
                  (     0         -1          0      )

 cart.    s(14) = ( -1.0000000  0.0000000  0.0000000 )
                  (  0.0000000  0.0000000 -1.0000000 )
                  (  0.0000000 -1.0000000  0.0000000 )


      isym = 15      90 deg rotation - cart. axis [-1,0,0]       

 cryst.   s(15) = (     1          0          0      )
                  (     0          0         -1      )
                  (     0          1          0      )

 cart.    s(15) = (  1.0000000  0.0000000  0.0000000 )
                  (  0.0000000  0.0000000  1.0000000 )
                  (  0.0000000 -1.0000000  0.0000000 )


      isym = 16      90 deg rotation - cart. axis [1,0,0]        

 cryst.   s(16) = (     1          0          0      )
                  (     0          0          1      )
                  (     0         -1          0      )

 cart.    s(16) = (  1.0000000  0.0000000  0.0000000 )
                  (  0.0000000  0.0000000 -1.0000000 )
                  (  0.0000000  1.0000000  0.0000000 )


      isym = 17     120 deg rotation - cart. axis [-1,-1,-1]     

 cryst.   s(17) = (     0          0          1      )
                  (     1          0          0      )
                  (     0          1          0      )

 cart.    s(17) = (  0.0000000  1.0000000  0.0000000 )
                  (  0.0000000  0.0000000  1.0000000 )
                  (  1.0000000  0.0000000  0.0000000 )


      isym = 18     120 deg rotation - cart. axis [-1,1,1]       

 cryst.   s(18) = (     0          0         -1      )
                  (    -1          0          0      )
                  (     0          1          0      )

 cart.    s(18) = (  0.0000000 -1.0000000  0.0000000 )
                  (  0.0000000  0.0000000  1.0000000 )
                  ( -1.0000000  0.0000000  0.0000000 )


      isym = 19     120 deg rotation - cart. axis [1,1,-1]       

 cryst.   s(19) = (     0          0         -1      )
                  (     1          0          0      )
                  (     0         -1          0      )

 cart.    s(19) = (  0.0000000  1.0000000  0.0000000 )
                  (  0.0000000  0.0000000 -1.0000000 )
                  ( -1.0000000  0.0000000  0.0000000 )


      isym = 20     120 deg rotation - cart. axis [1,-1,1]       

 cryst.   s(20) = (     0          0          1      )
                  (    -1          0          0      )
                  (     0         -1          0      )

 cart.    s(20) = (  0.0000000 -1.0000000  0.0000000 )
                  (  0.0000000  0.0000000 -1.0000000 )
                  (  1.0000000  0.0000000  0.0000000 )


      isym = 21     120 deg rotation - cart. axis [1,1,1]        

 cryst.   s(21) = (     0          1          0      )
                  (     0          0          1      )
                  (     1          0          0      )

 cart.    s(21) = (  0.0000000  0.0000000  1.0000000 )
                  (  1.0000000  0.0000000  0.0000000 )
                  (  0.0000000  1.0000000  0.0000000 )


      isym = 22     120 deg rotation - cart. axis [-1,1,-1]      

 cryst.   s(22) = (     0         -1          0      )
                  (     0          0         -1      )
                  (     1          0          0      )

 cart.    s(22) = (  0.0000000  0.0000000  1.0000000 )
                  ( -1.0000000  0.0000000  0.0000000 )
                  (  0.0000000 -1.0000000  0.0000000 )


      isym = 23     120 deg rotation - cart. axis [1,-1,-1]      

 cryst.   s(23) = (     0         -1          0      )
                  (     0          0          1      )
                  (    -1          0          0      )

 cart.    s(23) = (  0.0000000  0.0000000 -1.0000000 )
                  ( -1.0000000  0.0000000  0.0000000 )
                  (  0.0000000  1.0000000  0.0000000 )


      isym = 24     120 deg rotation - cart. axis [-1,-1,1]      

 cryst.   s(24) = (     0          1          0      )
                  (     0          0         -1      )
                  (    -1          0          0      )

 cart.    s(24) = (  0.0000000  0.0000000 -1.0000000 )
                  (  1.0000000  0.0000000  0.0000000 )
                  (  0.0000000 -1.0000000  0.0000000 )


      isym = 25     inversion                                    

 cryst.   s(25) = (    -1          0          0      )
                  (     0         -1          0      )
                  (     0          0         -1      )

 cart.    s(25) = ( -1.0000000  0.0000000  0.0000000 )
                  (  0.0000000 -1.0000000  0.0000000 )
                  (  0.0000000  0.0000000 -1.0000000 )


      isym = 26     inv. 180 deg rotation - cart. axis [0,0,1]   

 cryst.   s(26) = (     1          0          0      )
                  (     0          1          0      )
                  (     0          0         -1      )

 cart.    s(26) = (  1.0000000  0.0000000  0.0000000 )
                  (  0.0000000  1.0000000  0.0000000 )
                  (  0.0000000  0.0000000 -1.0000000 )


      isym = 27     inv. 180 deg rotation - cart. axis [0,1,0]   

 cryst.   s(27) = (     1          0          0      )
                  (     0         -1          0      )
                  (     0          0          1      )

 cart.    s(27) = (  1.0000000  0.0000000  0.0000000 )
                  (  0.0000000 -1.0000000  0.0000000 )
                  (  0.0000000  0.0000000  1.0000000 )


      isym = 28     inv. 180 deg rotation - cart. axis [1,0,0]   

 cryst.   s(28) = (    -1          0          0      )
                  (     0          1          0      )
                  (     0          0          1      )

 cart.    s(28) = ( -1.0000000  0.0000000  0.0000000 )
                  (  0.0000000  1.0000000  0.0000000 )
                  (  0.0000000  0.0000000  1.0000000 )


      isym = 29     inv. 180 deg rotation - cart. axis [1,1,0]   

 cryst.   s(29) = (     0         -1          0      )
                  (    -1          0          0      )
                  (     0          0          1      )

 cart.    s(29) = (  0.0000000 -1.0000000  0.0000000 )
                  ( -1.0000000  0.0000000  0.0000000 )
                  (  0.0000000  0.0000000  1.0000000 )


      isym = 30     inv. 180 deg rotation - cart. axis [1,-1,0]  

 cryst.   s(30) = (     0          1          0      )
                  (     1          0          0      )
                  (     0          0          1      )

 cart.    s(30) = (  0.0000000  1.0000000  0.0000000 )
                  (  1.0000000  0.0000000  0.0000000 )
                  (  0.0000000  0.0000000  1.0000000 )


      isym = 31     inv.  90 deg rotation - cart. axis [0,0,-1]  

 cryst.   s(31) = (     0          1          0      )
                  (    -1          0          0      )
                  (     0          0         -1      )

 cart.    s(31) = (  0.0000000 -1.0000000  0.0000000 )
                  (  1.0000000  0.0000000  0.0000000 )
                  (  0.0000000  0.0000000 -1.0000000 )


      isym = 32     inv.  90 deg rotation - cart. axis [0,0,1]   

 cryst.   s(32) = (     0         -1          0      )
                  (     1          0          0      )
                  (     0          0         -1      )

 cart.    s(32) = (  0.0000000  1.0000000  0.0000000 )
                  ( -1.0000000  0.0000000  0.0000000 )
                  (  0.0000000  0.0000000 -1.0000000 )


      isym = 33     inv. 180 deg rotation - cart. axis [1,0,1]   

 cryst.   s(33) = (     0          0         -1      )
                  (     0          1          0      )
                  (    -1          0          0      )

 cart.    s(33) = (  0.0000000  0.0000000 -1.0000000 )
                  (  0.0000000  1.0000000  0.0000000 )
                  ( -1.0000000  0.0000000  0.0000000 )


      isym = 34     inv. 180 deg rotation - cart. axis [-1,0,1]  

 cryst.   s(34) = (     0          0          1      )
                  (     0          1          0      )
                  (     1          0          0      )

 cart.    s(34) = (  0.0000000  0.0000000  1.0000000 )
                  (  0.0000000  1.0000000  0.0000000 )
                  (  1.0000000  0.0000000  0.0000000 )


      isym = 35     inv.  90 deg rotation - cart. axis [0,1,0]   

 cryst.   s(35) = (     0          0          1      )
                  (     0         -1          0      )
                  (    -1          0          0      )

 cart.    s(35) = (  0.0000000  0.0000000 -1.0000000 )
                  (  0.0000000 -1.0000000  0.0000000 )
                  (  1.0000000  0.0000000  0.0000000 )


      isym = 36     inv.  90 deg rotation - cart. axis [0,-1,0]  

 cryst.   s(36) = (     0          0         -1      )
                  (     0         -1          0      )
                  (     1          0          0      )

 cart.    s(36) = (  0.0000000  0.0000000  1.0000000 )
                  (  0.0000000 -1.0000000  0.0000000 )
                  ( -1.0000000  0.0000000  0.0000000 )


      isym = 37     inv. 180 deg rotation - cart. axis [0,1,1]   

 cryst.   s(37) = (     1          0          0      )
                  (     0          0         -1      )
                  (     0         -1          0      )

 cart.    s(37) = (  1.0000000  0.0000000  0.0000000 )
                  (  0.0000000  0.0000000 -1.0000000 )
                  (  0.0000000 -1.0000000  0.0000000 )


      isym = 38     inv. 180 deg rotation - cart. axis [0,1,-1]  

 cryst.   s(38) = (     1          0          0      )
                  (     0          0          1      )
                  (     0          1          0      )

 cart.    s(38) = (  1.0000000  0.0000000  0.0000000 )
                  (  0.0000000  0.0000000  1.0000000 )
                  (  0.0000000  1.0000000  0.0000000 )


      isym = 39     inv.  90 deg rotation - cart. axis [-1,0,0]  

 cryst.   s(39) = (    -1          0          0      )
                  (     0          0          1      )
                  (     0         -1          0      )

 cart.    s(39) = ( -1.0000000  0.0000000  0.0000000 )
                  (  0.0000000  0.0000000 -1.0000000 )
                  (  0.0000000  1.0000000  0.0000000 )


      isym = 40     inv.  90 deg rotation - cart. axis [1,0,0]   

 cryst.   s(40) = (    -1          0          0      )
                  (     0          0         -1      )
                  (     0          1          0      )

 cart.    s(40) = ( -1.0000000  0.0000000  0.0000000 )
                  (  0.0000000  0.0000000  1.0000000 )
                  (  0.0000000 -1.0000000  0.0000000 )


      isym = 41     inv. 120 deg rotation - cart. axis [-1,-1,-1]

 cryst.   s(41) = (     0          0         -1      )
                  (    -1          0          0      )
                  (     0         -1          0      )

 cart.    s(41) = (  0.0000000 -1.0000000  0.0000000 )
                  (  0.0000000  0.0000000 -1.0000000 )
                  ( -1.0000000  0.0000000  0.0000000 )


      isym = 42     inv. 120 deg rotation - cart. axis [-1,1,1]  

 cryst.   s(42) = (     0          0          1      )
                  (     1          0          0      )
                  (     0         -1          0      )

 cart.    s(42) = (  0.0000000  1.0000000  0.0000000 )
                  (  0.0000000  0.0000000 -1.0000000 )
                  (  1.0000000  0.0000000  0.0000000 )


      isym = 43     inv. 120 deg rotation - cart. axis [1,1,-1]  

 cryst.   s(43) = (     0          0          1      )
                  (    -1          0          0      )
                  (     0          1          0      )

 cart.    s(43) = (  0.0000000 -1.0000000  0.0000000 )
                  (  0.0000000  0.0000000  1.0000000 )
                  (  1.0000000  0.0000000  0.0000000 )


      isym = 44     inv. 120 deg rotation - cart. axis [1,-1,1]  

 cryst.   s(44) = (     0          0         -1      )
                  (     1          0          0      )
                  (     0          1          0      )

 cart.    s(44) = (  0.0000000  1.0000000  0.0000000 )
                  (  0.0000000  0.0000000  1.0000000 )
                  ( -1.0000000  0.0000000  0.0000000 )


      isym = 45     inv. 120 deg rotation - cart. axis [1,1,1]   

 cryst.   s(45) = (     0         -1          0      )
                  (     0          0         -1      )
                  (    -1          0          0      )

 cart.    s(45) = (  0.0000000  0.0000000 -1.0000000 )
                  ( -1.0000000  0.0000000  0.0000000 )
                  (  0.0000000 -1.0000000  0.0000000 )


      isym = 46     inv. 120 deg rotation - cart. axis [-1,1,-1] 

 cryst.   s(46) = (     0          1          0      )
                  (     0          0          1      )
                  (    -1          0          0      )

 cart.    s(46) = (  0.0000000  0.0000000 -1.0000000 )
                  (  1.0000000  0.0000000  0.0000000 )
                  (  0.0000000  1.0000000  0.0000000 )


      isym = 47     inv. 120 deg rotation - cart. axis [1,-1,-1] 

 cryst.   s(47) = (     0          1          0      )
                  (     0          0         -1      )
                  (     1          0          0      )

 cart.    s(47) = (  0.0000000  0.0000000  1.0000000 )
                  (  1.0000000  0.0000000  0.0000000 )
                  (  0.0000000 -1.0000000  0.0000000 )


      isym = 48     inv. 120 deg rotation - cart. axis [-1,-1,1] 

 cryst.   s(48) = (     0         -1          0      )
                  (     0          0          1      )
                  (     1          0          0      )

 cart.    s(48) = (  0.0000000  0.0000000  1.0000000 )
                  ( -1.0000000  0.0000000  0.0000000 )
                  (  0.0000000  1.0000000  0.0000000 )


   Cartesian axes

     site n.     atom                  positions (alat units)
         1           Mg  tau(   1) = (   0.2500000   0.7500000   0.2500000  )
         2           Mg  tau(   2) = (   0.7500000   0.7500000   0.2500000  )
         3           Mg  tau(   3) = (   0.2500000   0.2500000   0.7500000  )
         4           Mg  tau(   4) = (   0.7500000   0.2500000   0.7500000  )
         5           Mg  tau(   5) = (   0.7500000   0.7500000   0.7500000  )
         6           Mg  tau(   6) = (   0.2500000   0.7500000   0.7500000  )
         7           Mg  tau(   7) = (   0.7500000   0.2500000   0.2500000  )
         8           Mg  tau(   8) = (   0.2500000   0.2500000   0.2500000  )
         9           H   tau(   9) = (   0.0000000   0.0000000   0.7469588  )
        10           H   tau(  10) = (   0.0000000   0.7530412   0.5000000  )
        11           H   tau(  11) = (   0.7530412   0.0000000   0.5000000  )
        12           H   tau(  12) = (   0.0000000   0.0000000   0.2530412  )
        13           H   tau(  13) = (   0.0000000   0.7469588   0.0000000  )
        14           H   tau(  14) = (   0.2469588   0.0000000   0.5000000  )
        15           H   tau(  15) = (   0.0000000   0.5000000   0.2469588  )
        16           H   tau(  16) = (   0.0000000   0.2530412   0.0000000  )
        17           H   tau(  17) = (   0.7530412   0.5000000   0.0000000  )
        18           H   tau(  18) = (   0.0000000   0.5000000   0.7530412  )
        19           H   tau(  19) = (   0.0000000   0.2469588   0.5000000  )
        20           H   tau(  20) = (   0.2469588   0.5000000   0.0000000  )
        21           H   tau(  21) = (   0.5000000   0.0000000   0.2469588  )
        22           H   tau(  22) = (   0.5000000   0.7530412   0.0000000  )
        23           H   tau(  23) = (   0.2530412   0.0000000   0.0000000  )
        24           H   tau(  24) = (   0.5000000   0.0000000   0.7530412  )
        25           H   tau(  25) = (   0.5000000   0.7469588   0.5000000  )
        26           H   tau(  26) = (   0.7469588   0.0000000   0.0000000  )
        27           H   tau(  27) = (   0.5000000   0.5000000   0.7469588  )
        28           H   tau(  28) = (   0.5000000   0.2530412   0.5000000  )
        29           H   tau(  29) = (   0.2530412   0.5000000   0.5000000  )
        30           H   tau(  30) = (   0.5000000   0.5000000   0.2530412  )
        31           H   tau(  31) = (   0.5000000   0.2469588   0.0000000  )
        32           H   tau(  32) = (   0.7469588   0.5000000   0.5000000  )
        33           Ru  tau(  33) = (   0.0000000   0.0000000   0.0000000  )
        34           Ru  tau(  34) = (   0.0000000   0.5000000   0.5000000  )
        35           Ru  tau(  35) = (   0.5000000   0.0000000   0.5000000  )
        36           Ru  tau(  36) = (   0.5000000   0.5000000   0.0000000  )

   Crystallographic axes

     site n.     atom                  positions (cryst. coord.)
         1           Mg  tau(   1) = (  0.2500000  0.7500000  0.2500000  )
         2           Mg  tau(   2) = (  0.7500000  0.7500000  0.2500000  )
         3           Mg  tau(   3) = (  0.2500000  0.2500000  0.7500000  )
         4           Mg  tau(   4) = (  0.7500000  0.2500000  0.7500000  )
         5           Mg  tau(   5) = (  0.7500000  0.7500000  0.7500000  )
         6           Mg  tau(   6) = (  0.2500000  0.7500000  0.7500000  )
         7           Mg  tau(   7) = (  0.7500000  0.2500000  0.2500000  )
         8           Mg  tau(   8) = (  0.2500000  0.2500000  0.2500000  )
         9           H   tau(   9) = (  0.0000000  0.0000000  0.7469588  )
        10           H   tau(  10) = (  0.0000000  0.7530412  0.5000000  )
        11           H   tau(  11) = (  0.7530412  0.0000000  0.5000000  )
        12           H   tau(  12) = (  0.0000000  0.0000000  0.2530412  )
        13           H   tau(  13) = (  0.0000000  0.7469588  0.0000000  )
        14           H   tau(  14) = (  0.2469588  0.0000000  0.5000000  )
        15           H   tau(  15) = (  0.0000000  0.5000000  0.2469588  )
        16           H   tau(  16) = (  0.0000000  0.2530412  0.0000000  )
        17           H   tau(  17) = (  0.7530412  0.5000000  0.0000000  )
        18           H   tau(  18) = (  0.0000000  0.5000000  0.7530412  )
        19           H   tau(  19) = (  0.0000000  0.2469588  0.5000000  )
        20           H   tau(  20) = (  0.2469588  0.5000000  0.0000000  )
        21           H   tau(  21) = (  0.5000000  0.0000000  0.2469588  )
        22           H   tau(  22) = (  0.5000000  0.7530412  0.0000000  )
        23           H   tau(  23) = (  0.2530412  0.0000000  0.0000000  )
        24           H   tau(  24) = (  0.5000000  0.0000000  0.7530412  )
        25           H   tau(  25) = (  0.5000000  0.7469588  0.5000000  )
        26           H   tau(  26) = (  0.7469588  0.0000000  0.0000000  )
        27           H   tau(  27) = (  0.5000000  0.5000000  0.7469588  )
        28           H   tau(  28) = (  0.5000000  0.2530412  0.5000000  )
        29           H   tau(  29) = (  0.2530412  0.5000000  0.5000000  )
        30           H   tau(  30) = (  0.5000000  0.5000000  0.2530412  )
        31           H   tau(  31) = (  0.5000000  0.2469588  0.0000000  )
        32           H   tau(  32) = (  0.7469588  0.5000000  0.5000000  )
        33           Ru  tau(  33) = (  0.0000000  0.0000000  0.0000000  )
        34           Ru  tau(  34) = (  0.0000000  0.5000000  0.5000000  )
        35           Ru  tau(  35) = (  0.5000000  0.0000000  0.5000000  )
        36           Ru  tau(  36) = (  0.5000000  0.5000000  0.0000000  )

     number of k points=    20  Gaussian smearing, width (Ry)=  0.0200
                       cart. coord. in units 2pi/alat
        k(    1) = (   0.0000000   0.0000000   0.0000000), wk =   0.0092593
        k(    2) = (   0.0000000   0.0000000   0.1666667), wk =   0.0555556
        k(    3) = (   0.0000000   0.0000000   0.3333333), wk =   0.0555556
        k(    4) = (   0.0000000   0.0000000  -0.5000000), wk =   0.0277778
        k(    5) = (   0.0000000   0.1666667   0.1666667), wk =   0.1111111
        k(    6) = (   0.0000000   0.1666667   0.3333333), wk =   0.2222222
        k(    7) = (   0.0000000   0.1666667  -0.5000000), wk =   0.1111111
        k(    8) = (   0.0000000   0.3333333   0.3333333), wk =   0.1111111
        k(    9) = (   0.0000000   0.3333333  -0.5000000), wk =   0.1111111
        k(   10) = (   0.0000000  -0.5000000  -0.5000000), wk =   0.0277778
        k(   11) = (   0.1666667   0.1666667   0.1666667), wk =   0.0740741
        k(   12) = (   0.1666667   0.1666667   0.3333333), wk =   0.2222222
        k(   13) = (   0.1666667   0.1666667  -0.5000000), wk =   0.1111111
        k(   14) = (   0.1666667   0.3333333   0.3333333), wk =   0.2222222
        k(   15) = (   0.1666667   0.3333333  -0.5000000), wk =   0.2222222
        k(   16) = (   0.1666667  -0.5000000  -0.5000000), wk =   0.0555556
        k(   17) = (   0.3333333   0.3333333   0.3333333), wk =   0.0740741
        k(   18) = (   0.3333333   0.3333333  -0.5000000), wk =   0.1111111
        k(   19) = (   0.3333333  -0.5000000  -0.5000000), wk =   0.0555556
        k(   20) = (  -0.5000000  -0.5000000  -0.5000000), wk =   0.0092593

                       cryst. coord.
        k(    1) = (   0.0000000   0.0000000   0.0000000), wk =   0.0092593
        k(    2) = (   0.0000000   0.0000000   0.1666667), wk =   0.0555556
        k(    3) = (   0.0000000   0.0000000   0.3333333), wk =   0.0555556
        k(    4) = (   0.0000000   0.0000000  -0.5000000), wk =   0.0277778
        k(    5) = (   0.0000000   0.1666667   0.1666667), wk =   0.1111111
        k(    6) = (   0.0000000   0.1666667   0.3333333), wk =   0.2222222
        k(    7) = (   0.0000000   0.1666667  -0.5000000), wk =   0.1111111
        k(    8) = (   0.0000000   0.3333333   0.3333333), wk =   0.1111111
        k(    9) = (   0.0000000   0.3333333  -0.5000000), wk =   0.1111111
        k(   10) = (   0.0000000  -0.5000000  -0.5000000), wk =   0.0277778
        k(   11) = (   0.1666667   0.1666667   0.1666667), wk =   0.0740741
        k(   12) = (   0.1666667   0.1666667   0.3333333), wk =   0.2222222
        k(   13) = (   0.1666667   0.1666667  -0.5000000), wk =   0.1111111
        k(   14) = (   0.1666667   0.3333333   0.3333333), wk =   0.2222222
        k(   15) = (   0.1666667   0.3333333  -0.5000000), wk =   0.2222222
        k(   16) = (   0.1666667  -0.5000000  -0.5000000), wk =   0.0555556
        k(   17) = (   0.3333333   0.3333333   0.3333333), wk =   0.0740741
        k(   18) = (   0.3333333   0.3333333  -0.5000000), wk =   0.1111111
        k(   19) = (   0.3333333  -0.5000000  -0.5000000), wk =   0.0555556
        k(   20) = (  -0.5000000  -0.5000000  -0.5000000), wk =   0.0092593

     Dense  grid:  1160031 G-vectors     FFT dimensions: ( 135, 135, 135)

     Smooth grid:   223135 G-vectors     FFT dimensions: (  75,  75,  75)

     Dynamical RAM for                 wfc:       0.82 MB

     Dynamical RAM for     wfc (w. buffer):       9.07 MB

     Dynamical RAM for           str. fact:       1.66 MB

     Dynamical RAM for           local pot:       0.00 MB

     Dynamical RAM for          nlocal pot:       2.45 MB

     Dynamical RAM for                qrad:       7.91 MB

     Dynamical RAM for          rho,v,vnew:       3.75 MB

     Dynamical RAM for               rhoin:       1.25 MB

     Dynamical RAM for            rho*nmix:       8.85 MB

     Dynamical RAM for           G-vectors:       2.13 MB

     Dynamical RAM for          h,s,v(r/c):       0.70 MB

     Dynamical RAM for          <psi|beta>:       0.17 MB

     Dynamical RAM for                 psi:       1.65 MB

     Dynamical RAM for                hpsi:       1.65 MB

     Dynamical RAM for                spsi:       1.65 MB

     Dynamical RAM for      wfcinit/wfcrot:       3.78 MB

     Dynamical RAM for           addusdens:      58.36 MB

     Dynamical RAM for          addusforce:      71.18 MB

     Dynamical RAM for         addusstress:      55.73 MB

     Estimated static dynamical RAM per process >      33.90 MB

     Estimated max dynamical RAM per process >     113.93 MB

     Estimated total dynamical RAM >       6.84 GB

     Initial potential from superposition of free atoms

     starting charge     103.9896, renormalised to     104.0000
     Starting wfcs are  128 randomized atomic wfcs
     Checking if some PAW data can be deallocated... 
       PAW data deallocated on   48 nodes for type:  2
       PAW data deallocated on   60 nodes for type:  3

     total cpu time spent up to now is        3.6 secs

     Self-consistent Calculation

     iteration #  1     ecut=    90.00 Ry     beta= 0.40
     Davidson diagonalization with overlap

---- Real-time Memory Report at c_bands before calling an iterative solver
           136 MiB given to the printing process from OS
             0 MiB allocation reported by mallinfo(arena+hblkhd)
        217241 MiB available memory on the node where the printing process lives
------------------
     ethr =  1.00E-02,  avg # of iterations =  2.4

     total cpu time spent up to now is        6.5 secs

     total energy              =   -1998.57732590 Ry
     estimated scf accuracy    <       1.37400561 Ry

     iteration #  2     ecut=    90.00 Ry     beta= 0.40
     Davidson diagonalization with overlap

---- Real-time Memory Report at c_bands before calling an iterative solver
           161 MiB given to the printing process from OS
             0 MiB allocation reported by mallinfo(arena+hblkhd)
        213358 MiB available memory on the node where the printing process lives
------------------
     ethr =  1.32E-03,  avg # of iterations =  2.0

     total cpu time spent up to now is        9.1 secs

     total energy              =   -1998.50735363 Ry
     estimated scf accuracy    <       0.33496731 Ry

     iteration #  3     ecut=    90.00 Ry     beta= 0.40
     Davidson diagonalization with overlap

---- Real-time Memory Report at c_bands before calling an iterative solver
           165 MiB given to the printing process from OS
             0 MiB allocation reported by mallinfo(arena+hblkhd)
        212269 MiB available memory on the node where the printing process lives
------------------
     ethr =  3.22E-04,  avg # of iterations =  2.8

     total cpu time spent up to now is       12.1 secs

     total energy              =   -1998.56772872 Ry
     estimated scf accuracy    <       0.00435040 Ry

     iteration #  4     ecut=    90.00 Ry     beta= 0.40
     Davidson diagonalization with overlap

---- Real-time Memory Report at c_bands before calling an iterative solver
           165 MiB given to the printing process from OS
             0 MiB allocation reported by mallinfo(arena+hblkhd)
        212258 MiB available memory on the node where the printing process lives
------------------
     c_bands:  3 eigenvalues not converged
     c_bands:  1 eigenvalues not converged
     c_bands:  1 eigenvalues not converged
     c_bands:  2 eigenvalues not converged
     c_bands:  2 eigenvalues not converged
     ethr =  4.18E-06,  avg # of iterations = 15.7

     total cpu time spent up to now is       18.7 secs

     total energy              =   -1998.57462876 Ry
     estimated scf accuracy    <       0.00252627 Ry

     iteration #  5     ecut=    90.00 Ry     beta= 0.40
     Davidson diagonalization with overlap

---- Real-time Memory Report at c_bands before calling an iterative solver
           166 MiB given to the printing process from OS
             0 MiB allocation reported by mallinfo(arena+hblkhd)
        215542 MiB available memory on the node where the printing process lives
------------------
     ethr =  2.43E-06,  avg # of iterations =  7.4

     total cpu time spent up to now is       22.1 secs

     total energy              =   -1998.57488635 Ry
     estimated scf accuracy    <       0.00069826 Ry

     iteration #  6     ecut=    90.00 Ry     beta= 0.40
     Davidson diagonalization with overlap

---- Real-time Memory Report at c_bands before calling an iterative solver
           167 MiB given to the printing process from OS
             0 MiB allocation reported by mallinfo(arena+hblkhd)
        216436 MiB available memory on the node where the printing process lives
------------------
     ethr =  6.71E-07,  avg # of iterations =  7.0

     total cpu time spent up to now is       26.0 secs

     total energy              =   -1998.57500118 Ry
     estimated scf accuracy    <       0.00062475 Ry

     iteration #  7     ecut=    90.00 Ry     beta= 0.40
     Davidson diagonalization with overlap

---- Real-time Memory Report at c_bands before calling an iterative solver
           167 MiB given to the printing process from OS
             0 MiB allocation reported by mallinfo(arena+hblkhd)
        213898 MiB available memory on the node where the printing process lives
------------------
     c_bands:  2 eigenvalues not converged
     ethr =  6.01E-07,  avg # of iterations =  2.9

     total cpu time spent up to now is       28.8 secs

     total energy              =   -1998.57504463 Ry
     estimated scf accuracy    <       0.00003016 Ry

     iteration #  8     ecut=    90.00 Ry     beta= 0.40
     Davidson diagonalization with overlap

---- Real-time Memory Report at c_bands before calling an iterative solver
           168 MiB given to the printing process from OS
             0 MiB allocation reported by mallinfo(arena+hblkhd)
        213246 MiB available memory on the node where the printing process lives
------------------
     c_bands:  1 eigenvalues not converged
     ethr =  2.90E-08,  avg # of iterations =  8.8

     total cpu time spent up to now is       33.8 secs

     total energy              =   -1998.57508255 Ry
     estimated scf accuracy    <       0.00000884 Ry

     iteration #  9     ecut=    90.00 Ry     beta= 0.40
     Davidson diagonalization with overlap

---- Real-time Memory Report at c_bands before calling an iterative solver
           168 MiB given to the printing process from OS
             0 MiB allocation reported by mallinfo(arena+hblkhd)
        212206 MiB available memory on the node where the printing process lives
------------------
     ethr =  8.50E-09,  avg # of iterations =  2.6

     total cpu time spent up to now is       36.5 secs

     total energy              =   -1998.57508205 Ry
     estimated scf accuracy    <       0.00000308 Ry

     iteration # 10     ecut=    90.00 Ry     beta= 0.40
     Davidson diagonalization with overlap

---- Real-time Memory Report at c_bands before calling an iterative solver
           169 MiB given to the printing process from OS
             0 MiB allocation reported by mallinfo(arena+hblkhd)
        212204 MiB available memory on the node where the printing process lives
------------------
     ethr =  2.96E-09,  avg # of iterations =  6.8

     total cpu time spent up to now is       40.6 secs

     total energy              =   -1998.57508319 Ry
     estimated scf accuracy    <       0.00000176 Ry

     iteration # 11     ecut=    90.00 Ry     beta= 0.40
     Davidson diagonalization with overlap

---- Real-time Memory Report at c_bands before calling an iterative solver
           170 MiB given to the printing process from OS
             0 MiB allocation reported by mallinfo(arena+hblkhd)
        212197 MiB available memory on the node where the printing process lives
------------------
     ethr =  1.69E-09,  avg # of iterations =  5.5

     total cpu time spent up to now is       44.1 secs

     total energy              =   -1998.57508369 Ry
     estimated scf accuracy    <       0.00000008 Ry

     iteration # 12     ecut=    90.00 Ry     beta= 0.40
     Davidson diagonalization with overlap

---- Real-time Memory Report at c_bands before calling an iterative solver
           170 MiB given to the printing process from OS
             0 MiB allocation reported by mallinfo(arena+hblkhd)
        212198 MiB available memory on the node where the printing process lives
------------------
     ethr =  7.50E-11,  avg # of iterations = 14.2

     total cpu time spent up to now is       50.8 secs

     total energy              =   -1998.57508382 Ry
     estimated scf accuracy    <       0.00000010 Ry

     iteration # 13     ecut=    90.00 Ry     beta= 0.40
     Davidson diagonalization with overlap

---- Real-time Memory Report at c_bands before calling an iterative solver
           170 MiB given to the printing process from OS
             0 MiB allocation reported by mallinfo(arena+hblkhd)
        215384 MiB available memory on the node where the printing process lives
------------------
     c_bands:  1 eigenvalues not converged
     ethr =  7.50E-11,  avg # of iterations =  4.8

     total cpu time spent up to now is       54.3 secs

     total energy              =   -1998.57508384 Ry
     estimated scf accuracy    <       0.00000005 Ry

     iteration # 14     ecut=    90.00 Ry     beta= 0.40
     Davidson diagonalization with overlap

---- Real-time Memory Report at c_bands before calling an iterative solver
           170 MiB given to the printing process from OS
             0 MiB allocation reported by mallinfo(arena+hblkhd)
        217553 MiB available memory on the node where the printing process lives
------------------
     ethr =  5.06E-11,  avg # of iterations =  4.6

     total cpu time spent up to now is       57.5 secs

     total energy              =   -1998.57508385 Ry
     estimated scf accuracy    <          8.1E-09 Ry

     iteration # 15     ecut=    90.00 Ry     beta= 0.40
     Davidson diagonalization with overlap

---- Real-time Memory Report at c_bands before calling an iterative solver
           170 MiB given to the printing process from OS
             0 MiB allocation reported by mallinfo(arena+hblkhd)
        215498 MiB available memory on the node where the printing process lives
------------------
     ethr =  7.77E-12,  avg # of iterations =  6.6

     total cpu time spent up to now is       61.1 secs

     End of self-consistent calculation

          k = 0.0000 0.0000 0.0000 ( 28017 PWs)   bands (ev):

   -65.0574 -65.0573 -65.0573 -65.0573 -35.1698 -35.1698 -35.1698 -35.1687
   -35.1687 -35.1687 -35.1687 -35.1687 -35.1687 -35.1681 -35.1681 -35.1681
    -2.7095  -0.6224  -0.6224  -0.6224   1.3510   1.3510   1.3510   1.6063
     1.6063   1.6063   1.8614   1.8614   2.1996   2.1996   2.1996   3.1008
     3.1008   3.1008   3.1008   3.1008   3.1008   3.8346   3.8346   3.8346
     4.4567   4.4567   4.4567   4.5116   4.5116   4.5116   5.4551   5.4551
     5.4551   5.4551   5.4551   5.4551   8.4623   8.4623   8.4623  10.7789
    10.7789  10.7789  12.2784  12.2906  12.2907  12.5019

     occupation numbers 
     1.0000   1.0000   1.0000   1.0000   1.0000   1.0000   1.0000   1.0000
     1.0000   1.0000   1.0000   1.0000   1.0000   1.0000   1.0000   1.0000
     1.0000   1.0000   1.0000   1.0000   1.0000   1.0000   1.0000   1.0000
     1.0000   1.0000   1.0000   1.0000   1.0000   1.0000   1.0000   1.0000
     1.0000   1.0000   1.0000   1.0000   1.0000   1.0000   1.0000   1.0000
     1.0000   1.0000   1.0000   1.0000   1.0000   1.0000   1.0000   1.0000
     1.0000   1.0000   1.0000   1.0000   0.0000   0.0000   0.0000   0.0000
     0.0000   0.0000   0.0000   0.0000   0.0000   0.0000

          k = 0.0000 0.0000 0.1667 ( 27913 PWs)   bands (ev):

   -65.0574 -65.0573 -65.0573 -65.0573 -35.1697 -35.1697 -35.1697 -35.1688
   -35.1688 -35.1687 -35.1687 -35.1687 -35.1687 -35.1682 -35.1682 -35.1682
    -2.6139  -0.8262  -0.5335  -0.5335   0.9612   1.3738   1.3738   1.4142
     1.4142   1.7452   1.8828   2.0655   2.0655   2.1756   2.3394   2.7838
     2.7838   3.1418   3.1418   3.3919   3.3919   3.8755   4.1015   4.1015
     4.1636   4.1636   4.4441   4.4612   4.8538   4.8538   5.4193   5.4193
     5.4527   5.4527   5.4552   5.4552   8.4668   8.6710   8.6710  10.8033
    10.8327  10.8327  11.4290  11.6981  12.2252  12.2253

     occupation numbers 
     1.0000   1.0000   1.0000   1.0000   1.0000   1.0000   1.0000   1.0000
     1.0000   1.0000   1.0000   1.0000   1.0000   1.0000   1.0000   1.0000
     1.0000   1.0000   1.0000   1.0000   1.0000   1.0000   1.0000   1.0000
     1.0000   1.0000   1.0000   1.0000   1.0000   1.0000   1.0000   1.0000
     1.0000   1.0000   1.0000   1.0000   1.0000   1.0000   1.0000   1.0000
     1.0000   1.0000   1.0000   1.0000   1.0000   1.0000   1.0000   1.0000
     1.0000   1.0000   1.0000   1.0000   0.0000   0.0000   0.0000   0.0000
     0.0000   0.0000   0.0000   0.0000   0.0000   0.0000

          k = 0.0000 0.0000 0.3333 ( 27914 PWs)   bands (ev):

   -65.0573 -65.0573 -65.0573 -65.0573 -35.1695 -35.1695 -35.1694 -35.1690
   -35.1690 -35.1687 -35.1687 -35.1686 -35.1686 -35.1686 -35.1683 -35.1683
    -2.3328  -1.3340  -0.2825  -0.2825   0.8422   0.8422   0.9167   1.4608
     1.6016   1.6016   1.9421   1.9980   1.9980   2.1111   2.3142   2.3142
     3.2441   3.2653   3.2653   3.7547   3.7547   3.7604   3.7604   3.9903
     4.3277   4.3323   4.6509   4.6509   5.1523   5.1523   5.2951   5.2951
     5.4290   5.4290   5.4554   5.4554   8.5829   9.2739   9.2739  10.0275
    10.8827  11.0378  11.0378  11.2949  12.1227  12.1231

     occupation numbers 
     1.0000   1.0000   1.0000   1.0000   1.0000   1.0000   1.0000   1.0000
     1.0000   1.0000   1.0000   1.0000   1.0000   1.0000   1.0000   1.0000
     1.0000   1.0000   1.0000   1.0000   1.0000   1.0000   1.0000   1.0000
     1.0000   1.0000   1.0000   1.0000   1.0000   1.0000   1.0000   1.0000
     1.0000   1.0000   1.0000   1.0000   1.0000   1.0000   1.0000   1.0000
     1.0000   1.0000   1.0000   1.0000   1.0000   1.0000   1.0000   1.0000
     1.0000   1.0000   1.0000   1.0000   0.0000   0.0000   0.0000   0.0000
     0.0000   0.0000   0.0000   0.0000   0.0000   0.0000

          k = 0.0000 0.0000-0.5000 ( 27846 PWs)   bands (ev):

   -65.0573 -65.0573 -65.0573 -65.0573 -35.1693 -35.1693 -35.1693 -35.1693
   -35.1690 -35.1690 -35.1687 -35.1687 -35.1684 -35.1684 -35.1684 -35.1684
    -1.8873  -1.8873  -0.0347  -0.0347   0.4742   0.4742   1.1395   1.1395
     1.9067   1.9067   1.9067   1.9067   1.9863   1.9864   2.0253   2.0253
     3.4711   3.4711   3.4711   3.4711   3.8994   3.8994   3.9581   3.9581
     4.1543   4.1543   5.0448   5.0448   5.0448   5.0448   5.3424   5.3424
     5.3424   5.3424   5.4554   5.4554   9.0486   9.0486   9.8728   9.8728
    11.0362  11.0362  11.1287  11.1287  11.4716  11.4716

     occupation numbers 
     1.0000   1.0000   1.0000   1.0000   1.0000   1.0000   1.0000   1.0000
     1.0000   1.0000   1.0000   1.0000   1.0000   1.0000   1.0000   1.0000
     1.0000   1.0000   1.0000   1.0000   1.0000   1.0000   1.0000   1.0000
     1.0000   1.0000   1.0000   1.0000   1.0000   1.0000   1.0000   1.0000
     1.0000   1.0000   1.0000   1.0000   1.0000   1.0000   1.0000   1.0000
     1.0000   1.0000   1.0000   1.0000   1.0000   1.0000   1.0000   1.0000
     1.0000   1.0000   1.0000   1.0000   0.0000   0.0000   0.0000   0.0000
     0.0000   0.0000   0.0000   0.0000   0.0000   0.0000

          k = 0.0000 0.1667 0.1667 ( 27945 PWs)   bands (ev):

   -65.0573 -65.0573 -65.0573 -65.0573 -35.1697 -35.1697 -35.1697 -35.1689
   -35.1688 -35.1688 -35.1687 -35.1687 -35.1687 -35.1684 -35.1682 -35.1682
    -2.5185  -0.7335  -0.7335  -0.4449   0.9336   0.9336   1.1434   1.4767
     1.7164   1.8186   1.8772   1.8944   1.8944   2.2875   2.2875   2.7918
     2.8313   2.8313   3.4845   3.4845   3.6009   3.7900   3.8563   4.1958
     4.1958   4.3211   4.5769   4.7197   4.8834   4.9267   5.3971   5.4211
     5.4211   5.4453   5.4516   5.4516   8.6638   8.6638   8.8244  10.8556
    10.8556  10.9095  11.4394  11.4484  11.4933  12.3127

     occupation numbers 
     1.0000   1.0000   1.0000   1.0000   1.0000   1.0000   1.0000   1.0000
     1.0000   1.0000   1.0000   1.0000   1.0000   1.0000   1.0000   1.0000
     1.0000   1.0000   1.0000   1.0000   1.0000   1.0000   1.0000   1.0000
     1.0000   1.0000   1.0000   1.0000   1.0000   1.0000   1.0000   1.0000
     1.0000   1.0000   1.0000   1.0000   1.0000   1.0000   1.0000   1.0000
     1.0000   1.0000   1.0000   1.0000   1.0000   1.0000   1.0000   1.0000
     1.0000   1.0000   1.0000   1.0000   0.0000   0.0000   0.0000   0.0000
     0.0000   0.0000   0.0000   0.0000   0.0000   0.0000

          k = 0.0000 0.1667 0.3333 ( 27910 PWs)   bands (ev):

   -65.0573 -65.0573 -65.0573 -65.0573 -35.1695 -35.1695 -35.1694 -35.1691
   -35.1690 -35.1687 -35.1687 -35.1686 -35.1686 -35.1685 -35.1683 -35.1682
    -2.2380  -1.2399  -0.4632  -0.1954   0.6024   0.7168   0.9059   1.4690
     1.5827   1.6625   1.7130   1.8289   1.9193   2.3346   2.3678   2.6152
     2.8348   2.9720   3.4378   3.5059   3.8525   3.8948   3.9598   4.2858
     4.5388   4.6698   4.6803   4.6974   5.1496   5.1504   5.2868   5.3055
     5.4100   5.4245   5.4420   5.4485   8.7475   9.2234   9.2681  10.1045
    10.9273  11.0575  11.1861  11.2399  11.5864  11.6441

     occupation numbers 
     1.0000   1.0000   1.0000   1.0000   1.0000   1.0000   1.0000   1.0000
     1.0000   1.0000   1.0000   1.0000   1.0000   1.0000   1.0000   1.0000
     1.0000   1.0000   1.0000   1.0000   1.0000   1.0000   1.0000   1.0000
     1.0000   1.0000   1.0000   1.0000   1.0000   1.0000   1.0000   1.0000
     1.0000   1.0000   1.0000   1.0000   1.0000   1.0000   1.0000   1.0000
     1.0000   1.0000   1.0000   1.0000   1.0000   1.0000   1.0000   1.0000
     1.0000   1.0000   1.0000   1.0000   0.0000   0.0000   0.0000   0.0000
     0.0000   0.0000   0.0000   0.0000   0.0000   0.0000

          k = 0.0000 0.1667-0.5000 ( 27860 PWs)   bands (ev):

   -65.0573 -65.0573 -65.0573 -65.0573 -35.1693 -35.1693 -35.1692 -35.1692
   -35.1691 -35.1691 -35.1686 -35.1686 -35.1685 -35.1685 -35.1684 -35.1684
    -1.7931  -1.7931  -0.0760  -0.0760   0.3266   0.3266   1.1436   1.1436
     1.5946   1.5946   1.8775   1.8775   1.9647   1.9647   2.4418   2.4418
     3.1555   3.1555   3.2009   3.2009   4.0687   4.0687   4.3807   4.3807
     4.4133   4.4133   5.0497   5.0497   5.0582   5.0582   5.3342   5.3342
     5.3398   5.3398   5.4447   5.4447   9.1680   9.1680   9.7108   9.7108
    11.0535  11.0535  11.0632  11.0632  11.4831  11.4831

     occupation numbers 
     1.0000   1.0000   1.0000   1.0000   1.0000   1.0000   1.0000   1.0000
     1.0000   1.0000   1.0000   1.0000   1.0000   1.0000   1.0000   1.0000
     1.0000   1.0000   1.0000   1.0000   1.0000   1.0000   1.0000   1.0000
     1.0000   1.0000   1.0000   1.0000   1.0000   1.0000   1.0000   1.0000
     1.0000   1.0000   1.0000   1.0000   1.0000   1.0000   1.0000   1.0000
     1.0000   1.0000   1.0000   1.0000   1.0000   1.0000   1.0000   1.0000
     1.0000   1.0000   1.0000   1.0000   0.0000   0.0000   0.0000   0.0000
     0.0000   0.0000   0.0000   0.0000   0.0000   0.0000

          k = 0.0000 0.3333 0.3333 ( 27918 PWs)   bands (ev):

   -65.0573 -65.0573 -65.0573 -65.0573 -35.1694 -35.1694 -35.1693 -35.1693
   -35.1690 -35.1688 -35.1688 -35.1685 -35.1685 -35.1685 -35.1685 -35.1682
    -1.9589  -0.9631  -0.9631  -0.0185   0.1324   0.7942   0.7942   1.4811
     1.5214   1.5228   1.5564   1.5564   1.8432   2.5267   2.5267   2.7297
     2.7297   2.7516   3.1214   3.1231   4.3282   4.3282   4.4265   4.7202
     4.7202   4.7555   4.7706   5.0534   5.1441   5.1954   5.2326   5.3210
     5.3210   5.4128   5.4133   5.4133   9.2029   9.2029   9.3451  10.2630
    10.4493  11.1082  11.1082  11.1849  11.2450  11.2451

     occupation numbers 
     1.0000   1.0000   1.0000   1.0000   1.0000   1.0000   1.0000   1.0000
     1.0000   1.0000   1.0000   1.0000   1.0000   1.0000   1.0000   1.0000
     1.0000   1.0000   1.0000   1.0000   1.0000   1.0000   1.0000   1.0000
     1.0000   1.0000   1.0000   1.0000   1.0000   1.0000   1.0000   1.0000
     1.0000   1.0000   1.0000   1.0000   1.0000   1.0000   1.0000   1.0000
     1.0000   1.0000   1.0000   1.0000   1.0000   1.0000   1.0000   1.0000
     1.0000   1.0000   1.0000   1.0000   0.0000   0.0000   0.0000   0.0000
     0.0000   0.0000   0.0000   0.0000   0.0000   0.0000

          k = 0.0000 0.3333-0.5000 ( 27910 PWs)   bands (ev):

   -65.0573 -65.0573 -65.0573 -65.0573 -35.1694 -35.1694 -35.1692 -35.1692
   -35.1691 -35.1691 -35.1686 -35.1686 -35.1685 -35.1685 -35.1683 -35.1683
    -1.5157  -1.5156  -0.5229  -0.5229   0.4540   0.4540   1.1096   1.1096
     1.4464   1.4464   1.5251   1.5251   2.1366   2.1366   2.7424   2.7424
     2.7837   2.7837   2.9344   2.9344   4.5543   4.5543   4.7757   4.7757
     4.8301   4.8301   5.0531   5.0531   5.0783   5.0783   5.2935   5.2935
     5.3210   5.3210   5.4038   5.4038   9.5008   9.5008   9.5286   9.5286
    10.7952  10.7952  10.8446  10.8446  11.1590  11.1590

     occupation numbers 
     1.0000   1.0000   1.0000   1.0000   1.0000   1.0000   1.0000   1.0000
     1.0000   1.0000   1.0000   1.0000   1.0000   1.0000   1.0000   1.0000
     1.0000   1.0000   1.0000   1.0000   1.0000   1.0000   1.0000   1.0000
     1.0000   1.0000   1.0000   1.0000   1.0000   1.0000   1.0000   1.0000
     1.0000   1.0000   1.0000   1.0000   1.0000   1.0000   1.0000   1.0000
     1.0000   1.0000   1.0000   1.0000   1.0000   1.0000   1.0000   1.0000
     1.0000   1.0000   1.0000   1.0000   0.0000   0.0000   0.0000   0.0000
     0.0000   0.0000   0.0000   0.0000   0.0000   0.0000

          k = 0.0000-0.5000-0.5000 ( 27916 PWs)   bands (ev):

   -65.0573 -65.0573 -65.0573 -65.0573 -35.1694 -35.1694 -35.1694 -35.1694
   -35.1689 -35.1689 -35.1689 -35.1688 -35.1683 -35.1683 -35.1683 -35.1683
    -1.0744  -1.0744  -1.0744  -1.0744   0.8167   0.8167   0.8167   0.8167
     1.3880   1.3880   1.3880   1.3880   2.4150   2.4150   2.4150   2.4150
     2.8500   2.8500   2.8500   2.8500   4.9974   4.9974   4.9974   4.9974
     5.0140   5.0140   5.0140   5.0140   5.0820   5.0820   5.0821   5.0821
     5.3414   5.3414   5.3414   5.3414   9.6308   9.6308   9.6308   9.6308
    10.4544  10.4544  10.4544  10.4544  11.3616  11.3616

     occupation numbers 
     1.0000   1.0000   1.0000   1.0000   1.0000   1.0000   1.0000   1.0000
     1.0000   1.0000   1.0000   1.0000   1.0000   1.0000   1.0000   1.0000
     1.0000   1.0000   1.0000   1.0000   1.0000   1.0000   1.0000   1.0000
     1.0000   1.0000   1.0000   1.0000   1.0000   1.0000   1.0000   1.0000
     1.0000   1.0000   1.0000   1.0000   1.0000   1.0000   1.0000   1.0000
     1.0000   1.0000   1.0000   1.0000   1.0000   1.0000   1.0000   1.0000
     1.0000   1.0000   1.0000   1.0000   0.0000   0.0000   0.0000   0.0000
     0.0000   0.0000   0.0000   0.0000   0.0000   0.0000

          k = 0.1667 0.1667 0.1667 ( 27889 PWs)   bands (ev):

   -65.0573 -65.0573 -65.0573 -65.0573 -35.1696 -35.1696 -35.1696 -35.1688
   -35.1688 -35.1688 -35.1686 -35.1686 -35.1686 -35.1686 -35.1682 -35.1682
    -2.4234  -0.6411  -0.6411  -0.6411   0.8707   0.8707   0.8707   1.7289
     1.7289   1.8685   1.8685   1.8685   1.8720   1.8720   1.8720   3.0432
     3.0432   3.0432   3.2475   3.6229   3.6229   3.6229   4.3235   4.3235
     4.3590   4.3590   4.3590   4.8772   4.9620   4.9620   5.4000   5.4000
     5.4000   5.4430   5.4430   5.4430   8.8084   8.8084   8.8084  10.9269
    10.9269  10.9269  11.0568  11.4781  11.4781  12.2847

     occupation numbers 
     1.0000   1.0000   1.0000   1.0000   1.0000   1.0000   1.0000   1.0000
     1.0000   1.0000   1.0000   1.0000   1.0000   1.0000   1.0000   1.0000
     1.0000   1.0000   1.0000   1.0000   1.0000   1.0000   1.0000   1.0000
     1.0000   1.0000   1.0000   1.0000   1.0000   1.0000   1.0000   1.0000
     1.0000   1.0000   1.0000   1.0000   1.0000   1.0000   1.0000   1.0000
     1.0000   1.0000   1.0000   1.0000   1.0000   1.0000   1.0000   1.0000
     1.0000   1.0000   1.0000   1.0000   0.0000   0.0000   0.0000   0.0000
     0.0000   0.0000   0.0000   0.0000   0.0000   0.0000

          k = 0.1667 0.1667 0.3333 ( 27898 PWs)   bands (ev):

   -65.0573 -65.0573 -65.0573 -65.0573 -35.1695 -35.1695 -35.1695 -35.1690
   -35.1690 -35.1689 -35.1686 -35.1686 -35.1686 -35.1685 -35.1683 -35.1682
    -2.1435  -1.1467  -0.3717  -0.3717   0.5541   0.5541   0.8811   1.4753
     1.5837   1.5837   1.7619   1.8008   1.8008   1.8429   2.1918   2.7785
     2.9545   2.9545   3.6712   3.6959   4.0254   4.0254   4.0473   4.4232
     4.4802   4.7030   4.7030   4.8898   5.1161   5.1986   5.2968   5.2968
     5.3937   5.4187   5.4367   5.4367   8.8674   9.2197   9.2197  10.1361
    10.9707  11.0285  11.1815  11.1815  11.6559  11.6559

     occupation numbers 
     1.0000   1.0000   1.0000   1.0000   1.0000   1.0000   1.0000   1.0000
     1.0000   1.0000   1.0000   1.0000   1.0000   1.0000   1.0000   1.0000
     1.0000   1.0000   1.0000   1.0000   1.0000   1.0000   1.0000   1.0000
     1.0000   1.0000   1.0000   1.0000   1.0000   1.0000   1.0000   1.0000
     1.0000   1.0000   1.0000   1.0000   1.0000   1.0000   1.0000   1.0000
     1.0000   1.0000   1.0000   1.0000   1.0000   1.0000   1.0000   1.0000
     1.0000   1.0000   1.0000   1.0000   0.0000   0.0000   0.0000   0.0000
     0.0000   0.0000   0.0000   0.0000   0.0000   0.0000

          k = 0.1667 0.1667-0.5000 ( 27898 PWs)   bands (ev):

   -65.0573 -65.0573 -65.0573 -65.0573 -35.1695 -35.1695 -35.1692 -35.1692
   -35.1690 -35.1690 -35.1686 -35.1686 -35.1684 -35.1684 -35.1684 -35.1684
    -1.6995  -1.6995  -0.0086  -0.0086   0.1227   0.1227   1.1427   1.1427
     1.5636   1.5636   1.7458   1.7458   1.8043   1.8043   2.4490   2.4490
     2.8930   2.8930   3.8347   3.8347   4.1800   4.1800   4.1995   4.1995
     4.7029   4.7029   5.0557   5.0557   5.0691   5.0691   5.3252   5.3252
     5.3398   5.3398   5.4350   5.4350   9.2515   9.2515   9.5861   9.5861
    11.0044  11.0044  11.0115  11.0115  11.6991  11.6995

     occupation numbers 
     1.0000   1.0000   1.0000   1.0000   1.0000   1.0000   1.0000   1.0000
     1.0000   1.0000   1.0000   1.0000   1.0000   1.0000   1.0000   1.0000
     1.0000   1.0000   1.0000   1.0000   1.0000   1.0000   1.0000   1.0000
     1.0000   1.0000   1.0000   1.0000   1.0000   1.0000   1.0000   1.0000
     1.0000   1.0000   1.0000   1.0000   1.0000   1.0000   1.0000   1.0000
     1.0000   1.0000   1.0000   1.0000   1.0000   1.0000   1.0000   1.0000
     1.0000   1.0000   1.0000   1.0000   0.0000   0.0000   0.0000   0.0000
     0.0000   0.0000   0.0000   0.0000   0.0000   0.0000

          k = 0.1667 0.3333 0.3333 ( 27917 PWs)   bands (ev):

   -65.0573 -65.0573 -65.0573 -65.0573 -35.1696 -35.1695 -35.1695 -35.1692
   -35.1689 -35.1687 -35.1687 -35.1685 -35.1685 -35.1685 -35.1684 -35.1682
    -1.8655  -0.8729  -0.8729  -0.1097   0.0982   0.7093   0.7093   1.4844
     1.5132   1.5204   1.5425   1.5426   1.6492   1.8928   1.8928   2.2706
     3.2357   3.4678   3.4678   3.9572   4.3046   4.3046   4.4307   4.6935
     4.7755   4.7755   4.7976   4.9940   5.1917   5.2372   5.2446   5.3127
     5.3127   5.4039   5.4039   5.4062   9.2011   9.2011   9.2923  10.1270
    10.5120  11.0771  11.0775  11.1894  11.3758  11.3869

     occupation numbers 
     1.0000   1.0000   1.0000   1.0000   1.0000   1.0000   1.0000   1.0000
     1.0000   1.0000   1.0000   1.0000   1.0000   1.0000   1.0000   1.0000
     1.0000   1.0000   1.0000   1.0000   1.0000   1.0000   1.0000   1.0000
     1.0000   1.0000   1.0000   1.0000   1.0000   1.0000   1.0000   1.0000
     1.0000   1.0000   1.0000   1.0000   1.0000   1.0000   1.0000   1.0000
     1.0000   1.0000   1.0000   1.0000   1.0000   1.0000   1.0000   1.0000
     1.0000   1.0000   1.0000   1.0000   0.0000   0.0000   0.0000   0.0000
     0.0000   0.0000   0.0000   0.0000   0.0000   0.0000

          k = 0.1667 0.3333-0.5000 ( 27932 PWs)   bands (ev):

   -65.0573 -65.0573 -65.0573 -65.0573 -35.1696 -35.1696 -35.1694 -35.1694
   -35.1688 -35.1688 -35.1685 -35.1685 -35.1685 -35.1685 -35.1683 -35.1683
    -1.4241  -1.4241  -0.4411  -0.4411   0.3034   0.3034   1.0791   1.0791
     1.4448   1.4448   1.5165   1.5165   1.7494   1.7494   2.0244   2.0244
     3.3367   3.3367   3.7470   3.7470   4.5751   4.5751   4.6579   4.6579
     4.9306   4.9306   5.0599   5.0599   5.0866   5.0866   5.2842   5.2842
     5.3215   5.3215   5.3937   5.3937   9.4452   9.4452   9.4857   9.4857
    10.7183  10.7183  10.8306  10.8306  11.2553  11.2553

     occupation numbers 
     1.0000   1.0000   1.0000   1.0000   1.0000   1.0000   1.0000   1.0000
     1.0000   1.0000   1.0000   1.0000   1.0000   1.0000   1.0000   1.0000
     1.0000   1.0000   1.0000   1.0000   1.0000   1.0000   1.0000   1.0000
     1.0000   1.0000   1.0000   1.0000   1.0000   1.0000   1.0000   1.0000
     1.0000   1.0000   1.0000   1.0000   1.0000   1.0000   1.0000   1.0000
     1.0000   1.0000   1.0000   1.0000   1.0000   1.0000   1.0000   1.0000
     1.0000   1.0000   1.0000   1.0000   0.0000   0.0000   0.0000   0.0000
     0.0000   0.0000   0.0000   0.0000   0.0000   0.0000

          k = 0.1667-0.5000-0.5000 ( 27996 PWs)   bands (ev):

   -65.0573 -65.0573 -65.0573 -65.0573 -35.1696 -35.1696 -35.1695 -35.1695
   -35.1687 -35.1687 -35.1687 -35.1687 -35.1683 -35.1683 -35.1683 -35.1683
    -0.9872  -0.9872  -0.9872  -0.9872   0.7166   0.7166   0.7166   0.7167
     1.3877   1.3877   1.3877   1.3877   1.8555   1.8555   1.8555   1.8555
     3.5593   3.5593   3.5593   3.5593   4.9958   4.9958   4.9958   4.9958
     5.0147   5.0147   5.0147   5.0147   5.0814   5.0814   5.0814   5.0814
     5.3315   5.3315   5.3315   5.3315   9.5482   9.5482   9.5482   9.5482
    10.4699  10.4699  10.4699  10.4699  11.3040  11.3040

     occupation numbers 
     1.0000   1.0000   1.0000   1.0000   1.0000   1.0000   1.0000   1.0000
     1.0000   1.0000   1.0000   1.0000   1.0000   1.0000   1.0000   1.0000
     1.0000   1.0000   1.0000   1.0000   1.0000   1.0000   1.0000   1.0000
     1.0000   1.0000   1.0000   1.0000   1.0000   1.0000   1.0000   1.0000
     1.0000   1.0000   1.0000   1.0000   1.0000   1.0000   1.0000   1.0000
     1.0000   1.0000   1.0000   1.0000   1.0000   1.0000   1.0000   1.0000
     1.0000   1.0000   1.0000   1.0000   0.0000   0.0000   0.0000   0.0000
     0.0000   0.0000   0.0000   0.0000   0.0000   0.0000

          k = 0.3333 0.3333 0.3333 ( 27916 PWs)   bands (ev):

   -65.0573 -65.0573 -65.0573 -65.0573 -35.1697 -35.1697 -35.1697 -35.1694
   -35.1686 -35.1686 -35.1686 -35.1684 -35.1684 -35.1684 -35.1683 -35.1683
    -1.5912  -0.6161  -0.6161  -0.6161   0.3840   0.3840   0.3840   1.4929
     1.4929   1.4991   1.5097   1.5097   1.5097   1.5136   1.5136   1.5136
     4.0107   4.0107   4.0107   4.4499   4.4499   4.4499   4.5846   4.5846
     4.8847   4.8847   4.8847   4.9161   5.2588   5.2588   5.2704   5.2704
     5.2704   5.3635   5.3635   5.3635   9.2600   9.2600   9.2600   9.9144
    10.6881  10.6882  11.1221  11.1222  11.1223  11.1835

     occupation numbers 
     1.0000   1.0000   1.0000   1.0000   1.0000   1.0000   1.0000   1.0000
     1.0000   1.0000   1.0000   1.0000   1.0000   1.0000   1.0000   1.0000
     1.0000   1.0000   1.0000   1.0000   1.0000   1.0000   1.0000   1.0000
     1.0000   1.0000   1.0000   1.0000   1.0000   1.0000   1.0000   1.0000
     1.0000   1.0000   1.0000   1.0000   1.0000   1.0000   1.0000   1.0000
     1.0000   1.0000   1.0000   1.0000   1.0000   1.0000   1.0000   1.0000
     1.0000   1.0000   1.0000   1.0000   0.0000   0.0000   0.0000   0.0000
     0.0000   0.0000   0.0000   0.0000   0.0000   0.0000

          k = 0.3333 0.3333-0.5000 ( 27902 PWs)   bands (ev):

   -65.0573 -65.0573 -65.0573 -65.0573 -35.1698 -35.1698 -35.1696 -35.1696
   -35.1686 -35.1686 -35.1684 -35.1684 -35.1684 -35.1684 -35.1684 -35.1684
    -1.1569  -1.1569  -0.3464  -0.3464   0.0465   0.0466   0.8584   0.8584
     1.4313   1.4313   1.4812   1.4812   1.4934   1.4934   1.5037   1.5037
     4.0627   4.0627   4.4984   4.4984   4.5452   4.5452   4.6969   4.6969
     5.0090   5.0090   5.0637   5.0637   5.1086   5.1086   5.2520   5.2520
     5.2843   5.2843   5.3391   5.3391   9.3573   9.3573   9.4935   9.4935
    10.6524  10.6524  10.7513  10.7513  10.9341  10.9344

     occupation numbers 
     1.0000   1.0000   1.0000   1.0000   1.0000   1.0000   1.0000   1.0000
     1.0000   1.0000   1.0000   1.0000   1.0000   1.0000   1.0000   1.0000
     1.0000   1.0000   1.0000   1.0000   1.0000   1.0000   1.0000   1.0000
     1.0000   1.0000   1.0000   1.0000   1.0000   1.0000   1.0000   1.0000
     1.0000   1.0000   1.0000   1.0000   1.0000   1.0000   1.0000   1.0000
     1.0000   1.0000   1.0000   1.0000   1.0000   1.0000   1.0000   1.0000
     1.0000   1.0000   1.0000   1.0000   0.0000   0.0000   0.0000   0.0000
     0.0000   0.0000   0.0000   0.0000   0.0000   0.0000

          k = 0.3333-0.5000-0.5000 ( 27932 PWs)   bands (ev):

   -65.0573 -65.0573 -65.0573 -65.0573 -35.1698 -35.1698 -35.1698 -35.1698
   -35.1684 -35.1684 -35.1684 -35.1684 -35.1683 -35.1683 -35.1683 -35.1683
    -0.7455  -0.7455  -0.7455  -0.7455   0.3740   0.3740   0.3740   0.3740
     1.3873   1.3873   1.3873   1.3873   1.4757   1.4757   1.4757   1.4757
     4.3885   4.3885   4.3885   4.3885   4.9931   4.9931   4.9931   4.9931
     5.0158   5.0158   5.0158   5.0158   5.0797   5.0797   5.0797   5.0797
     5.2607   5.2607   5.2607   5.2607   9.4539   9.4539   9.4539   9.4539
    10.5011  10.5011  10.5011  10.5011  10.8875  10.8875

     occupation numbers 
     1.0000   1.0000   1.0000   1.0000   1.0000   1.0000   1.0000   1.0000
     1.0000   1.0000   1.0000   1.0000   1.0000   1.0000   1.0000   1.0000
     1.0000   1.0000   1.0000   1.0000   1.0000   1.0000   1.0000   1.0000
     1.0000   1.0000   1.0000   1.0000   1.0000   1.0000   1.0000   1.0000
     1.0000   1.0000   1.0000   1.0000   1.0000   1.0000   1.0000   1.0000
     1.0000   1.0000   1.0000   1.0000   1.0000   1.0000   1.0000   1.0000
     1.0000   1.0000   1.0000   1.0000   0.0000   0.0000   0.0000   0.0000
     0.0000   0.0000   0.0000   0.0000   0.0000   0.0000

          k =-0.5000-0.5000-0.5000 ( 27832 PWs)   bands (ev):

   -65.0573 -65.0573 -65.0573 -65.0573 -35.1699 -35.1699 -35.1699 -35.1699
   -35.1683 -35.1683 -35.1683 -35.1683 -35.1683 -35.1683 -35.1683 -35.1683
    -0.5257  -0.5257  -0.5257  -0.5257   0.0760   0.0760   0.0760   0.0760
     1.3870   1.3870   1.3870   1.3870   1.3870   1.3870   1.3870   1.3870
     4.9144   4.9144   4.9144   4.9144   4.9919   4.9919   4.9919   4.9919
     4.9919   4.9919   4.9919   4.9919   5.0787   5.0787   5.0787   5.0787
     5.0787   5.0787   5.0787   5.0787   9.4682   9.4682   9.4682   9.4682
    10.5169  10.5169  10.5169  10.5169  10.5169  10.5169

     occupation numbers 
     1.0000   1.0000   1.0000   1.0000   1.0000   1.0000   1.0000   1.0000
     1.0000   1.0000   1.0000   1.0000   1.0000   1.0000   1.0000   1.0000
     1.0000   1.0000   1.0000   1.0000   1.0000   1.0000   1.0000   1.0000
     1.0000   1.0000   1.0000   1.0000   1.0000   1.0000   1.0000   1.0000
     1.0000   1.0000   1.0000   1.0000   1.0000   1.0000   1.0000   1.0000
     1.0000   1.0000   1.0000   1.0000   1.0000   1.0000   1.0000   1.0000
     1.0000   1.0000   1.0000   1.0000   0.0000   0.0000   0.0000   0.0000
     0.0000   0.0000   0.0000   0.0000   0.0000   0.0000

     the Fermi energy is     6.7932 ev

!    total energy              =   -1998.57508385 Ry
     estimated scf accuracy    <          5.3E-09 Ry
     smearing contrib. (-TS)   =      -0.00000000 Ry
     internal energy E=F+TS    =   -1998.57508385 Ry

     The total energy is F=E-TS. E is the sum of the following terms:
     one-electron contribution =    -514.50723384 Ry
     hartree contribution      =     286.41389332 Ry
     xc contribution           =    -108.78983009 Ry
     ewald contribution        =    -456.80278467 Ry
     one-center paw contrib.   =   -1204.88912857 Ry
      -> PAW hartree energy AE =       0.63126556 Ry
      -> PAW hartree energy PS =      -0.63005577 Ry
      -> PAW xc energy AE      =     -31.60082370 Ry
      -> PAW xc energy PS      =       1.21192473 Ry
      -> total E_H with PAW    =     286.41510311 Ry
      -> total E_XC with PAW   =    -139.17872906 Ry

     convergence has been achieved in  15 iterations

     Forces acting on atoms (cartesian axes, Ry/au):

     atom    1 type  2   force =    -0.00000003    0.00000003   -0.00000003
     atom    2 type  2   force =     0.00000003    0.00000003   -0.00000003
     atom    3 type  2   force =    -0.00000003   -0.00000003    0.00000003
     atom    4 type  2   force =     0.00000003   -0.00000003    0.00000003
     atom    5 type  2   force =     0.00000003    0.00000003    0.00000003
     atom    6 type  2   force =    -0.00000003    0.00000003    0.00000003
     atom    7 type  2   force =     0.00000003   -0.00000003   -0.00000003
     atom    8 type  2   force =    -0.00000003   -0.00000003   -0.00000003
     atom    9 type  1   force =     0.00000000    0.00000000   -0.00366546
     atom   10 type  1   force =     0.00000000    0.00366531    0.00000000
     atom   11 type  1   force =     0.00366531   -0.00000000    0.00000000
     atom   12 type  1   force =     0.00000000    0.00000000    0.00366546
     atom   13 type  1   force =    -0.00000000   -0.00366546    0.00000000
     atom   14 type  1   force =    -0.00366531    0.00000000    0.00000000
     atom   15 type  1   force =     0.00000000    0.00000000   -0.00366531
     atom   16 type  1   force =    -0.00000000    0.00366546    0.00000000
     atom   17 type  1   force =     0.00366531    0.00000000    0.00000000
     atom   18 type  1   force =     0.00000000    0.00000000    0.00366531
     atom   19 type  1   force =     0.00000000   -0.00366531    0.00000000
     atom   20 type  1   force =    -0.00366531    0.00000000    0.00000000
     atom   21 type  1   force =     0.00000000    0.00000000   -0.00366531
     atom   22 type  1   force =     0.00000000    0.00366531    0.00000000
     atom   23 type  1   force =     0.00366546   -0.00000000    0.00000000
     atom   24 type  1   force =     0.00000000    0.00000000    0.00366531
     atom   25 type  1   force =     0.00000000   -0.00366530    0.00000000
     atom   26 type  1   force =    -0.00366546   -0.00000000    0.00000000
     atom   27 type  1   force =     0.00000000    0.00000000   -0.00366530
     atom   28 type  1   force =    -0.00000000    0.00366530    0.00000000
     atom   29 type  1   force =     0.00366530   -0.00000000    0.00000000
     atom   30 type  1   force =     0.00000000    0.00000000    0.00366530
     atom   31 type  1   force =     0.00000000   -0.00366531   -0.00000000
     atom   32 type  1   force =    -0.00366530    0.00000000    0.00000000
     atom   33 type  3   force =     0.00000000    0.00000000    0.00000000
     atom   34 type  3   force =     0.00000000    0.00000000    0.00000000
     atom   35 type  3   force =     0.00000000    0.00000000    0.00000000
     atom   36 type  3   force =     0.00000000    0.00000000    0.00000000
     The non-local contrib.  to forces
     atom    1 type  2   force =     0.00000008   -0.00000008    0.00000008
     atom    2 type  2   force =    -0.00000008   -0.00000008    0.00000008
     atom    3 type  2   force =     0.00000008    0.00000008   -0.00000008
     atom    4 type  2   force =    -0.00000008    0.00000008   -0.00000008
     atom    5 type  2   force =    -0.00000008   -0.00000008   -0.00000008
     atom    6 type  2   force =     0.00000008   -0.00000008   -0.00000008
     atom    7 type  2   force =    -0.00000008    0.00000008    0.00000008
     atom    8 type  2   force =     0.00000008    0.00000008    0.00000008
     atom    9 type  1   force =     0.00000000    0.00000000    0.02243444
     atom   10 type  1   force =    -0.00000000   -0.02243442    0.00000000
     atom   11 type  1   force =    -0.02243442   -0.00000000    0.00000000
     atom   12 type  1   force =     0.00000000   -0.00000000   -0.02243444
     atom   13 type  1   force =     0.00000000    0.02243444    0.00000000
     atom   14 type  1   force =     0.02243442    0.00000000    0.00000000
     atom   15 type  1   force =     0.00000000    0.00000000    0.02243442
     atom   16 type  1   force =     0.00000000   -0.02243444    0.00000000
     atom   17 type  1   force =    -0.02243442    0.00000000    0.00000000
     atom   18 type  1   force =     0.00000000    0.00000000   -0.02243442
     atom   19 type  1   force =     0.00000000    0.02243442    0.00000000
     atom   20 type  1   force =     0.02243442   -0.00000000    0.00000000
     atom   21 type  1   force =    -0.00000000    0.00000000    0.02243442
     atom   22 type  1   force =     0.00000000   -0.02243442   -0.00000000
     atom   23 type  1   force =    -0.02243444   -0.00000000    0.00000000
     atom   24 type  1   force =     0.00000000   -0.00000000   -0.02243442
     atom   25 type  1   force =    -0.00000000    0.02243444   -0.00000000
     atom   26 type  1   force =     0.02243444    0.00000000    0.00000000
     atom   27 type  1   force =     0.00000000    0.00000000    0.02243444
     atom   28 type  1   force =     0.00000000   -0.02243444    0.00000000
     atom   29 type  1   force =    -0.02243444    0.00000000    0.00000000
     atom   30 type  1   force =     0.00000000    0.00000000   -0.02243444
     atom   31 type  1   force =     0.00000000    0.02243442    0.00000000
     atom   32 type  1   force =     0.02243444    0.00000000    0.00000000
     atom   33 type  3   force =     0.00000000    0.00000000    0.00000000
     atom   34 type  3   force =     0.00000000    0.00000000    0.00000000
     atom   35 type  3   force =     0.00000000    0.00000000    0.00000000
     atom   36 type  3   force =     0.00000000    0.00000000    0.00000000
     The ionic contribution  to forces
     atom    1 type  2   force =    -0.00000000    0.00000000   -0.00000000
     atom    2 type  2   force =     0.00000000    0.00000000    0.00000000
     atom    3 type  2   force =    -0.00000000   -0.00000000   -0.00000000
     atom    4 type  2   force =     0.00000000   -0.00000000    0.00000000
     atom    5 type  2   force =     0.00000000    0.00000000   -0.00000000
     atom    6 type  2   force =    -0.00000000    0.00000000    0.00000000
     atom    7 type  2   force =     0.00000000   -0.00000000   -0.00000000
     atom    8 type  2   force =    -0.00000000   -0.00000000    0.00000000
     atom    9 type  1   force =    -0.00000000   -0.00000000   -2.45700671
     atom   10 type  1   force =    -0.00000000    2.45700671    0.00000000
     atom   11 type  1   force =     2.45700671   -0.00000000    0.00000000
     atom   12 type  1   force =    -0.00000000   -0.00000000    2.45700671
     atom   13 type  1   force =     0.00000000   -2.45700671   -0.00000000
     atom   14 type  1   force =    -2.45700671    0.00000000    0.00000000
     atom   15 type  1   force =    -0.00000000    0.00000000   -2.45700671
     atom   16 type  1   force =    -0.00000000    2.45700671   -0.00000000
     atom   17 type  1   force =     2.45700671   -0.00000000   -0.00000000
     atom   18 type  1   force =    -0.00000000    0.00000000    2.45700671
     atom   19 type  1   force =     0.00000000   -2.45700671    0.00000000
     atom   20 type  1   force =    -2.45700671    0.00000000   -0.00000000
     atom   21 type  1   force =     0.00000000   -0.00000000   -2.45700671
     atom   22 type  1   force =     0.00000000    2.45700671   -0.00000000
     atom   23 type  1   force =     2.45700671   -0.00000000   -0.00000000
     atom   24 type  1   force =     0.00000000   -0.00000000    2.45700671
     atom   25 type  1   force =     0.00000000   -2.45700671   -0.00000000
     atom   26 type  1   force =    -2.45700671    0.00000000   -0.00000000
     atom   27 type  1   force =    -0.00000000   -0.00000000   -2.45700671
     atom   28 type  1   force =    -0.00000000    2.45700671    0.00000000
     atom   29 type  1   force =     2.45700671   -0.00000000    0.00000000
     atom   30 type  1   force =     0.00000000    0.00000000    2.45700671
     atom   31 type  1   force =     0.00000000   -2.45700671   -0.00000000
     atom   32 type  1   force =    -2.45700671    0.00000000   -0.00000000
     atom   33 type  3   force =    -0.00000000   -0.00000000   -0.00000000
     atom   34 type  3   force =    -0.00000000    0.00000000    0.00000000
     atom   35 type  3   force =     0.00000000   -0.00000000    0.00000000
     atom   36 type  3   force =     0.00000000    0.00000000   -0.00000000
     The local contribution  to forces
     atom    1 type  2   force =     0.00000008   -0.00000008    0.00000008
     atom    2 type  2   force =    -0.00000008   -0.00000008    0.00000008
     atom    3 type  2   force =     0.00000008    0.00000008   -0.00000008
     atom    4 type  2   force =    -0.00000008    0.00000008   -0.00000008
     atom    5 type  2   force =    -0.00000008   -0.00000008   -0.00000008
     atom    6 type  2   force =     0.00000008   -0.00000008   -0.00000008
     atom    7 type  2   force =    -0.00000008    0.00000008    0.00000008
     atom    8 type  2   force =     0.00000008    0.00000008    0.00000008
     atom    9 type  1   force =     0.00000000    0.00000000    2.43091278
     atom   10 type  1   force =    -0.00000000   -2.43091374   -0.00000000
     atom   11 type  1   force =    -2.43091374   -0.00000000   -0.00000000
     atom   12 type  1   force =     0.00000000    0.00000000   -2.43091278
     atom   13 type  1   force =    -0.00000000    2.43091278    0.00000000
     atom   14 type  1   force =     2.43091374    0.00000000    0.00000000
     atom   15 type  1   force =     0.00000000    0.00000000    2.43091374
     atom   16 type  1   force =     0.00000000   -2.43091278    0.00000000
     atom   17 type  1   force =    -2.43091374   -0.00000000    0.00000000
     atom   18 type  1   force =     0.00000000   -0.00000000   -2.43091374
     atom   19 type  1   force =     0.00000000    2.43091374    0.00000000
     atom   20 type  1   force =     2.43091374    0.00000000    0.00000000
     atom   21 type  1   force =     0.00000000    0.00000000    2.43091374
     atom   22 type  1   force =     0.00000000   -2.43091374    0.00000000
     atom   23 type  1   force =    -2.43091278   -0.00000000    0.00000000
     atom   24 type  1   force =    -0.00000000    0.00000000   -2.43091374
     atom   25 type  1   force =    -0.00000000    2.43091367    0.00000000
     atom   26 type  1   force =     2.43091278    0.00000000    0.00000000
     atom   27 type  1   force =     0.00000000    0.00000000    2.43091367
     atom   28 type  1   force =     0.00000000   -2.43091367    0.00000000
     atom   29 type  1   force =    -2.43091367   -0.00000000    0.00000000
     atom   30 type  1   force =     0.00000000    0.00000000   -2.43091367
     atom   31 type  1   force =    -0.00000000    2.43091374    0.00000000
     atom   32 type  1   force =     2.43091367    0.00000000    0.00000000
     atom   33 type  3   force =     0.00000000    0.00000000    0.00000000
     atom   34 type  3   force =     0.00000000    0.00000000    0.00000000
     atom   35 type  3   force =     0.00000000    0.00000000    0.00000000
     atom   36 type  3   force =     0.00000000    0.00000000    0.00000000
     The core correction contribution to forces
     atom    1 type  2   force =    -0.00000001    0.00000001   -0.00000001
     atom    2 type  2   force =     0.00000001    0.00000001   -0.00000001
     atom    3 type  2   force =    -0.00000001   -0.00000001    0.00000001
     atom    4 type  2   force =     0.00000001   -0.00000001    0.00000001
     atom    5 type  2   force =     0.00000001    0.00000001    0.00000001
     atom    6 type  2   force =    -0.00000001    0.00000001    0.00000001
     atom    7 type  2   force =     0.00000001   -0.00000001   -0.00000001
     atom    8 type  2   force =    -0.00000001   -0.00000001   -0.00000001
     atom    9 type  1   force =     0.00000000    0.00000000    0.00000000
     atom   10 type  1   force =     0.00000000    0.00000000    0.00000000
     atom   11 type  1   force =     0.00000000    0.00000000    0.00000000
     atom   12 type  1   force =     0.00000000    0.00000000    0.00000000
     atom   13 type  1   force =     0.00000000    0.00000000    0.00000000
     atom   14 type  1   force =     0.00000000    0.00000000    0.00000000
     atom   15 type  1   force =     0.00000000    0.00000000    0.00000000
     atom   16 type  1   force =     0.00000000    0.00000000    0.00000000
     atom   17 type  1   force =     0.00000000    0.00000000    0.00000000
     atom   18 type  1   force =     0.00000000    0.00000000    0.00000000
     atom   19 type  1   force =     0.00000000    0.00000000    0.00000000
     atom   20 type  1   force =     0.00000000    0.00000000    0.00000000
     atom   21 type  1   force =     0.00000000    0.00000000    0.00000000
     atom   22 type  1   force =     0.00000000    0.00000000    0.00000000
     atom   23 type  1   force =     0.00000000    0.00000000    0.00000000
     atom   24 type  1   force =     0.00000000    0.00000000    0.00000000
     atom   25 type  1   force =     0.00000000    0.00000000    0.00000000
     atom   26 type  1   force =     0.00000000    0.00000000    0.00000000
     atom   27 type  1   force =     0.00000000    0.00000000    0.00000000
     atom   28 type  1   force =     0.00000000    0.00000000    0.00000000
     atom   29 type  1   force =     0.00000000    0.00000000    0.00000000
     atom   30 type  1   force =     0.00000000    0.00000000    0.00000000
     atom   31 type  1   force =     0.00000000    0.00000000    0.00000000
     atom   32 type  1   force =     0.00000000    0.00000000    0.00000000
     atom   33 type  3   force =     0.00000000    0.00000000    0.00000000
     atom   34 type  3   force =     0.00000000    0.00000000    0.00000000
     atom   35 type  3   force =     0.00000000    0.00000000    0.00000000
     atom   36 type  3   force =     0.00000000    0.00000000    0.00000000
     The Hubbard contrib.    to forces
     atom    1 type  2   force =     0.00000000    0.00000000    0.00000000
     atom    2 type  2   force =     0.00000000    0.00000000    0.00000000
     atom    3 type  2   force =     0.00000000    0.00000000    0.00000000
     atom    4 type  2   force =     0.00000000    0.00000000    0.00000000
     atom    5 type  2   force =     0.00000000    0.00000000    0.00000000
     atom    6 type  2   force =     0.00000000    0.00000000    0.00000000
     atom    7 type  2   force =     0.00000000    0.00000000    0.00000000
     atom    8 type  2   force =     0.00000000    0.00000000    0.00000000
     atom    9 type  1   force =     0.00000000    0.00000000    0.00000000
     atom   10 type  1   force =     0.00000000    0.00000000    0.00000000
     atom   11 type  1   force =     0.00000000    0.00000000    0.00000000
     atom   12 type  1   force =     0.00000000    0.00000000    0.00000000
     atom   13 type  1   force =     0.00000000    0.00000000    0.00000000
     atom   14 type  1   force =     0.00000000    0.00000000    0.00000000
     atom   15 type  1   force =     0.00000000    0.00000000    0.00000000
     atom   16 type  1   force =     0.00000000    0.00000000    0.00000000
     atom   17 type  1   force =     0.00000000    0.00000000    0.00000000
     atom   18 type  1   force =     0.00000000    0.00000000    0.00000000
     atom   19 type  1   force =     0.00000000    0.00000000    0.00000000
     atom   20 type  1   force =     0.00000000    0.00000000    0.00000000
     atom   21 type  1   force =     0.00000000    0.00000000    0.00000000
     atom   22 type  1   force =     0.00000000    0.00000000    0.00000000
     atom   23 type  1   force =     0.00000000    0.00000000    0.00000000
     atom   24 type  1   force =     0.00000000    0.00000000    0.00000000
     atom   25 type  1   force =     0.00000000    0.00000000    0.00000000
     atom   26 type  1   force =     0.00000000    0.00000000    0.00000000
     atom   27 type  1   force =     0.00000000    0.00000000    0.00000000
     atom   28 type  1   force =     0.00000000    0.00000000    0.00000000
     atom   29 type  1   force =     0.00000000    0.00000000    0.00000000
     atom   30 type  1   force =     0.00000000    0.00000000    0.00000000
     atom   31 type  1   force =     0.00000000    0.00000000    0.00000000
     atom   32 type  1   force =     0.00000000    0.00000000    0.00000000
     atom   33 type  3   force =     0.00000000    0.00000000    0.00000000
     atom   34 type  3   force =     0.00000000    0.00000000    0.00000000
     atom   35 type  3   force =     0.00000000    0.00000000    0.00000000
     atom   36 type  3   force =     0.00000000    0.00000000    0.00000000
     The SCF correction term to forces
     atom    1 type  2   force =    -0.00000018    0.00000018   -0.00000018
     atom    2 type  2   force =     0.00000018    0.00000018   -0.00000018
     atom    3 type  2   force =    -0.00000018   -0.00000018    0.00000018
     atom    4 type  2   force =     0.00000018   -0.00000018    0.00000018
     atom    5 type  2   force =     0.00000018    0.00000018    0.00000018
     atom    6 type  2   force =    -0.00000018    0.00000018    0.00000018
     atom    7 type  2   force =     0.00000018   -0.00000018   -0.00000018
     atom    8 type  2   force =    -0.00000018   -0.00000018   -0.00000018
     atom    9 type  1   force =    -0.00000000   -0.00000000   -0.00000598
     atom   10 type  1   force =     0.00000000    0.00000675   -0.00000000
     atom   11 type  1   force =     0.00000675   -0.00000000   -0.00000000
     atom   12 type  1   force =    -0.00000000    0.00000000    0.00000598
     atom   13 type  1   force =    -0.00000000   -0.00000598   -0.00000000
     atom   14 type  1   force =    -0.00000675    0.00000000   -0.00000000
     atom   15 type  1   force =    -0.00000000    0.00000000   -0.00000675
     atom   16 type  1   force =    -0.00000000    0.00000598   -0.00000000
     atom   17 type  1   force =     0.00000675    0.00000000    0.00000000
     atom   18 type  1   force =     0.00000000    0.00000000    0.00000675
     atom   19 type  1   force =     0.00000000   -0.00000675   -0.00000000
     atom   20 type  1   force =    -0.00000675   -0.00000000   -0.00000000
     atom   21 type  1   force =     0.00000000    0.00000000   -0.00000675
     atom   22 type  1   force =     0.00000000    0.00000675    0.00000000
     atom   23 type  1   force =     0.00000598   -0.00000000    0.00000000
     atom   24 type  1   force =     0.00000000    0.00000000    0.00000675
     atom   25 type  1   force =    -0.00000000   -0.00000670   -0.00000000
     atom   26 type  1   force =    -0.00000598   -0.00000000    0.00000000
     atom   27 type  1   force =     0.00000000    0.00000000   -0.00000670
     atom   28 type  1   force =    -0.00000000    0.00000670   -0.00000000
     atom   29 type  1   force =     0.00000670   -0.00000000   -0.00000000
     atom   30 type  1   force =    -0.00000000   -0.00000000    0.00000670
     atom   31 type  1   force =     0.00000000   -0.00000675    0.00000000
     atom   32 type  1   force =    -0.00000670    0.00000000   -0.00000000
     atom   33 type  3   force =    -0.00000000   -0.00000000    0.00000000
     atom   34 type  3   force =    -0.00000000    0.00000000    0.00000000
     atom   35 type  3   force =     0.00000000   -0.00000000    0.00000000
     atom   36 type  3   force =    -0.00000000    0.00000000    0.00000000

     Total force =     0.017956     Total SCF correction =     0.000032


     Computing stress (Cartesian axis) and pressure

          total   stress  (Ry/bohr**3)                   (kbar)     P=       -2.36
  -0.00001603   0.00000000   0.00000000           -2.36        0.00        0.00
   0.00000000  -0.00001603   0.00000000            0.00       -2.36        0.00
   0.00000000   0.00000000  -0.00001603            0.00        0.00       -2.36

     kinetic stress (kbar)   6460.89      0.00      0.00
                                0.00   6460.89      0.00
                                0.00      0.00   6460.89

     local   stress (kbar)  -4065.03     -0.00     -0.00
                               -0.00  -4065.03     -0.00
                               -0.00     -0.00  -4065.03

     nonloc. stress (kbar)   4404.54      0.00      0.00
                                0.00   4404.54      0.00
                                0.00      0.00   4404.54

     hartree stress (kbar)   7255.00     -0.00      0.00
                               -0.00   7255.00      0.00
                                0.00      0.00   7255.00

     exc-cor stress (kbar)  -2042.30     -0.00     -0.00
                               -0.00  -2042.30     -0.00
                               -0.00     -0.00  -2042.30

     corecor stress (kbar)   -444.41     -0.00     -0.00
                               -0.00   -444.41      0.00
                               -0.00      0.00   -444.41

     ewald   stress (kbar) -11571.03      0.00      0.00
                                0.00 -11571.03      0.00
                                0.00      0.00 -11571.03

     hubbard stress (kbar)      0.00      0.00      0.00
                                0.00      0.00      0.00
                                0.00      0.00      0.00

     DFT-D   stress (kbar)      0.00      0.00      0.00
                                0.00      0.00      0.00
                                0.00      0.00      0.00

     XDM     stress (kbar)      0.00      0.00      0.00
                                0.00      0.00      0.00
                                0.00      0.00      0.00

     dft-nl  stress (kbar)      0.00      0.00      0.00
                                0.00      0.00      0.00
                                0.00      0.00      0.00

     TS-vdW  stress (kbar)      0.00      0.00      0.00
                                0.00      0.00      0.00
                                0.00      0.00      0.00

     MDB     stress (kbar)      0.00      0.00      0.00
                                0.00      0.00      0.00
                                0.00      0.00      0.00

     3D-RISM stress (kbar)      0.00      0.00      0.00
                                0.00      0.00      0.00
                                0.00      0.00      0.00


     Writing all to output data dir ./out/ru-kp-6.save/

     init_run     :      2.64s CPU      3.12s WALL (       1 calls)
     electrons    :     47.04s CPU     57.58s WALL (       1 calls)
     forces       :      0.95s CPU      1.11s WALL (       1 calls)
     stress       :      4.43s CPU      4.67s WALL (       1 calls)

     Called by init_run:
     wfcinit      :      1.28s CPU      1.43s WALL (       1 calls)
     wfcinit:atom :      0.02s CPU      0.02s WALL (      10 calls)
     wfcinit:wfcr :      1.18s CPU      1.32s WALL (      10 calls)
     potinit      :      0.50s CPU      0.64s WALL (       1 calls)
     hinit0       :      0.39s CPU      0.43s WALL (       1 calls)

     Called by electrons:
     c_bands      :     36.93s CPU     43.44s WALL (      15 calls)
     sum_band     :      5.89s CPU      7.22s WALL (      15 calls)
     v_of_rho     :      1.19s CPU      1.38s WALL (      16 calls)
     v_h          :      0.11s CPU      0.14s WALL (      16 calls)
     v_xc         :      1.21s CPU      1.40s WALL (      18 calls)
     newd         :      1.65s CPU      2.14s WALL (      16 calls)
     PAW_pot      :      1.30s CPU      3.26s WALL (      16 calls)
     mix_rho      :      0.16s CPU      0.20s WALL (      15 calls)

     Called by c_bands:
     init_us_2    :      0.54s CPU      0.58s WALL (     330 calls)
     init_us_2:cp :      0.54s CPU      0.58s WALL (     330 calls)
     cegterg      :     35.05s CPU     39.07s WALL (     150 calls)

     Called by sum_band:
     sum_band:wei :      0.00s CPU      0.00s WALL (      15 calls)
     sum_band:loo :      3.91s CPU      4.43s WALL (      15 calls)
     sum_band:buf :      0.07s CPU      0.08s WALL (     150 calls)
     sum_band:ini :      0.21s CPU      0.23s WALL (     150 calls)
     sum_band:cal :      0.64s CPU      0.77s WALL (     150 calls)
     sum_band:bec :      0.02s CPU      0.02s WALL (     150 calls)
     addusdens    :      1.83s CPU      2.48s WALL (      15 calls)
                                        0.00s GPU  (      15 calls)
     addusd:skk   :      0.11s CPU      0.11s WALL (      45 calls)
                                        0.00s GPU  (      45 calls)

     Called by *egterg:
     cdiaghg      :      4.82s CPU      5.09s WALL (    1126 calls)
     cegterg:over :      1.77s CPU      2.06s WALL (     976 calls)
     cegterg:upda :      1.23s CPU      1.26s WALL (     976 calls)
     cegterg:last :      2.05s CPU      2.07s WALL (     422 calls)
     h_psi        :     23.33s CPU     26.72s WALL (    1136 calls)
     s_psi        :      1.79s CPU      1.82s WALL (    1136 calls)
     g_psi        :      0.06s CPU      0.06s WALL (     976 calls)

     Called by h_psi:
     h_psi:calbec :      3.11s CPU      3.74s WALL (    1136 calls)
     vloc_psi     :     18.03s CPU     20.67s WALL (    1136 calls)
     add_vuspsi   :      2.00s CPU      2.09s WALL (    1136 calls)

     General routines
     calbec       :      3.92s CPU      4.76s WALL (    1336 calls)
     fft          :      0.93s CPU      1.18s WALL (     231 calls)
     ffts         :      0.16s CPU      0.17s WALL (      31 calls)
     fftw         :     16.70s CPU     19.14s WALL (   69602 calls)
     interpolate  :      0.23s CPU      0.24s WALL (      16 calls)

     Parallel routines

     PAW routines
     PAW_pot      :      1.30s CPU      3.26s WALL (      16 calls)
     PAW_symme    :      0.01s CPU      0.02s WALL (      31 calls)

     PWSCF        :     55.64s CPU   1m 7.98s WALL


   This run was terminated on:  22:40: 9  13Jun2025            

=------------------------------------------------------------------------------=
   JOB DONE.
=------------------------------------------------------------------------------=
