
     Program PWSCF v.7.2 starts on 13Jun2025 at 22:37:41 

     This program is part of the open-source Quantum ESPRESSO suite
     for quantum simulation of materials; please cite
         "P. Giannozzi et al., J. Phys.:Condens. Matter 21 395502 (2009);
         "P. Giannozzi et al., J. Phys.:Condens. Matter 29 465901 (2017);
         "P. Giannozzi et al., J. Chem. Phys. 152 154105 (2020);
          URL http://www.quantum-espresso.org", 
     in publications or presentations arising from this work. More details at
     http://www.quantum-espresso.org/quote

     Parallel version (MPI & OpenMP), running on      64 processor cores
     Number of MPI processes:                64
     Threads/MPI process:                     1

     MPI processes distributed on     1 nodes
     220402 MiB available memory on the printing compute node when the environment starts

     Reading input from ru_kp_4.in

     Current dimensions of program PWSCF are:
     Max number of different atomic species (ntypx) = 10
     Max number of k-points (npk) =  40000
     Max angular momentum in pseudopotentials (lmaxx) =  4
     Message from routine read_pp_mesh:
     mismatch in mesh size, discarding the one in header
     file Mg.pbesol-n-kjpaw_psl.0.3.0.UPF: wavefunction(s)  3S renormalized
     Found identity + (  0.0000  0.5000 -0.5000) symmetry
     This is a supercell, fractional translations are disabled
     Message from routine setup:
     using ibrav=0 with symmetry is DISCOURAGED, use correct ibrav instead

     K-points division:     npool     =       2
     R & G space division:  proc/nbgrp/npool/nimage =      32
     Subspace diagonalization in iterative solution of the eigenvalue problem:
     a serial algorithm will be used


     Parallelization info
     --------------------
     sticks:   dense  smooth     PW     G-vecs:    dense   smooth      PW
     Min         416     138     37                36246     6970     993
     Max         417     139     38                36253     6975    1000
     Sum       13341    4445   1209              1160031   223135   31919

     Using Slab Decomposition



     bravais-lattice index     =            0
     lattice parameter (alat)  =      12.4630  a.u.
     unit-cell volume          =    1935.8122 (a.u.)^3
     number of atoms/cell      =           36
     number of atomic types    =            3
     number of electrons       =       104.00
     number of Kohn-Sham states=           62
     kinetic-energy cutoff     =      90.0000  Ry
     charge density cutoff     =    1080.0000  Ry
     scf convergence threshold =      7.2E-09
     mixing beta               =       0.4000
     number of iterations used =            8  plain     mixing
     Exchange-correlation= SLA PW PSX PSC
                           (   1   4  10   8   0   0   0)

     celldm(1)=  12.462956  celldm(2)=   0.000000  celldm(3)=   0.000000
     celldm(4)=   0.000000  celldm(5)=   0.000000  celldm(6)=   0.000000

     crystal axes: (cart. coord. in units of alat)
               a(1) = (   1.000000   0.000000   0.000000 )  
               a(2) = (   0.000000   1.000000   0.000000 )  
               a(3) = (   0.000000   0.000000   1.000000 )  

     reciprocal axes: (cart. coord. in units 2 pi/alat)
               b(1) = (  1.000000  0.000000  0.000000 )  
               b(2) = (  0.000000  1.000000  0.000000 )  
               b(3) = (  0.000000  0.000000  1.000000 )  


     PseudoPot. # 1 for H  read from file:
     ./pseudo/H.pbesol-rrkjus_psl.1.0.0.UPF
     MD5 check sum: 0324ed591cc0147dc3d88cad0d33f665
     Pseudo is Ultrasoft, Zval =  1.0
     Generated using "atomic" code by A. Dal Corso  v.6.0 svn rev. 13079
     Using radial grid of  929 points,  2 beta functions with: 
                l(1) =   0
                l(2) =   0
     Q(r) pseudized with 0 coefficients 


     PseudoPot. # 2 for Mg read from file:
     ./pseudo/Mg.pbesol-n-kjpaw_psl.0.3.0.UPF
     MD5 check sum: a6c8d2ff726a5f7005dea00130d82930
     Pseudo is Projector augmented-wave + core cor, Zval =  2.0
     Generated using "atomic" code by A. Dal Corso  v.6.1 svn rev. 13369
     Shape of augmentation charge: PSQ
     Using radial grid of 1129 points,  4 beta functions with: 
                l(1) =   0
                l(2) =   0
                l(3) =   1
                l(4) =   1
     Q(r) pseudized with 0 coefficients 


     PseudoPot. # 3 for Ru read from file:
     ./pseudo/Ru.upf
     MD5 check sum: be3bb57e49b2afd7571f8dd5d9c7d987
     Pseudo is Projector augmented-wave + core cor, Zval = 16.0
     Generated using ATOMPAW code
     Shape of augmentation charge: SINC**2
     Using radial grid of 2342 points,  6 beta functions with: 
                l(1) =   0
                l(2) =   0
                l(3) =   1
                l(4) =   1
                l(5) =   2
                l(6) =   2
     Q(r) pseudized with 0 coefficients 


     atomic species   valence    mass     pseudopotential
        H              1.00     1.00794     H ( 1.00)
        Mg             2.00    24.30500     Mg( 1.00)
        Ru            16.00   101.07000     Ru( 1.00)

     48 Sym. Ops., with inversion, found


                                    s                        frac. trans.

      isym =  1     identity                                     

 cryst.   s( 1) = (     1          0          0      )
                  (     0          1          0      )
                  (     0          0          1      )

 cart.    s( 1) = (  1.0000000  0.0000000  0.0000000 )
                  (  0.0000000  1.0000000  0.0000000 )
                  (  0.0000000  0.0000000  1.0000000 )


      isym =  2     180 deg rotation - cart. axis [0,0,1]        

 cryst.   s( 2) = (    -1          0          0      )
                  (     0         -1          0      )
                  (     0          0          1      )

 cart.    s( 2) = ( -1.0000000  0.0000000  0.0000000 )
                  (  0.0000000 -1.0000000  0.0000000 )
                  (  0.0000000  0.0000000  1.0000000 )


      isym =  3     180 deg rotation - cart. axis [0,1,0]        

 cryst.   s( 3) = (    -1          0          0      )
                  (     0          1          0      )
                  (     0          0         -1      )

 cart.    s( 3) = ( -1.0000000  0.0000000  0.0000000 )
                  (  0.0000000  1.0000000  0.0000000 )
                  (  0.0000000  0.0000000 -1.0000000 )


      isym =  4     180 deg rotation - cart. axis [1,0,0]        

 cryst.   s( 4) = (     1          0          0      )
                  (     0         -1          0      )
                  (     0          0         -1      )

 cart.    s( 4) = (  1.0000000  0.0000000  0.0000000 )
                  (  0.0000000 -1.0000000  0.0000000 )
                  (  0.0000000  0.0000000 -1.0000000 )


      isym =  5     180 deg rotation - cart. axis [1,1,0]        

 cryst.   s( 5) = (     0          1          0      )
                  (     1          0          0      )
                  (     0          0         -1      )

 cart.    s( 5) = (  0.0000000  1.0000000  0.0000000 )
                  (  1.0000000  0.0000000  0.0000000 )
                  (  0.0000000  0.0000000 -1.0000000 )


      isym =  6     180 deg rotation - cart. axis [1,-1,0]       

 cryst.   s( 6) = (     0         -1          0      )
                  (    -1          0          0      )
                  (     0          0         -1      )

 cart.    s( 6) = (  0.0000000 -1.0000000  0.0000000 )
                  ( -1.0000000  0.0000000  0.0000000 )
                  (  0.0000000  0.0000000 -1.0000000 )


      isym =  7      90 deg rotation - cart. axis [0,0,-1]       

 cryst.   s( 7) = (     0         -1          0      )
                  (     1          0          0      )
                  (     0          0          1      )

 cart.    s( 7) = (  0.0000000  1.0000000  0.0000000 )
                  ( -1.0000000  0.0000000  0.0000000 )
                  (  0.0000000  0.0000000  1.0000000 )


      isym =  8      90 deg rotation - cart. axis [0,0,1]        

 cryst.   s( 8) = (     0          1          0      )
                  (    -1          0          0      )
                  (     0          0          1      )

 cart.    s( 8) = (  0.0000000 -1.0000000  0.0000000 )
                  (  1.0000000  0.0000000  0.0000000 )
                  (  0.0000000  0.0000000  1.0000000 )


      isym =  9     180 deg rotation - cart. axis [1,0,1]        

 cryst.   s( 9) = (     0          0          1      )
                  (     0         -1          0      )
                  (     1          0          0      )

 cart.    s( 9) = (  0.0000000  0.0000000  1.0000000 )
                  (  0.0000000 -1.0000000  0.0000000 )
                  (  1.0000000  0.0000000  0.0000000 )


      isym = 10     180 deg rotation - cart. axis [-1,0,1]       

 cryst.   s(10) = (     0          0         -1      )
                  (     0         -1          0      )
                  (    -1          0          0      )

 cart.    s(10) = (  0.0000000  0.0000000 -1.0000000 )
                  (  0.0000000 -1.0000000  0.0000000 )
                  ( -1.0000000  0.0000000  0.0000000 )


      isym = 11      90 deg rotation - cart. axis [0,1,0]        

 cryst.   s(11) = (     0          0         -1      )
                  (     0          1          0      )
                  (     1          0          0      )

 cart.    s(11) = (  0.0000000  0.0000000  1.0000000 )
                  (  0.0000000  1.0000000  0.0000000 )
                  ( -1.0000000  0.0000000  0.0000000 )


      isym = 12      90 deg rotation - cart. axis [0,-1,0]       

 cryst.   s(12) = (     0          0          1      )
                  (     0          1          0      )
                  (    -1          0          0      )

 cart.    s(12) = (  0.0000000  0.0000000 -1.0000000 )
                  (  0.0000000  1.0000000  0.0000000 )
                  (  1.0000000  0.0000000  0.0000000 )


      isym = 13     180 deg rotation - cart. axis [0,1,1]        

 cryst.   s(13) = (    -1          0          0      )
                  (     0          0          1      )
                  (     0          1          0      )

 cart.    s(13) = ( -1.0000000  0.0000000  0.0000000 )
                  (  0.0000000  0.0000000  1.0000000 )
                  (  0.0000000  1.0000000  0.0000000 )


      isym = 14     180 deg rotation - cart. axis [0,1,-1]       

 cryst.   s(14) = (    -1          0          0      )
                  (     0          0         -1      )
                  (     0         -1          0      )

 cart.    s(14) = ( -1.0000000  0.0000000  0.0000000 )
                  (  0.0000000  0.0000000 -1.0000000 )
                  (  0.0000000 -1.0000000  0.0000000 )


      isym = 15      90 deg rotation - cart. axis [-1,0,0]       

 cryst.   s(15) = (     1          0          0      )
                  (     0          0         -1      )
                  (     0          1          0      )

 cart.    s(15) = (  1.0000000  0.0000000  0.0000000 )
                  (  0.0000000  0.0000000  1.0000000 )
                  (  0.0000000 -1.0000000  0.0000000 )


      isym = 16      90 deg rotation - cart. axis [1,0,0]        

 cryst.   s(16) = (     1          0          0      )
                  (     0          0          1      )
                  (     0         -1          0      )

 cart.    s(16) = (  1.0000000  0.0000000  0.0000000 )
                  (  0.0000000  0.0000000 -1.0000000 )
                  (  0.0000000  1.0000000  0.0000000 )


      isym = 17     120 deg rotation - cart. axis [-1,-1,-1]     

 cryst.   s(17) = (     0          0          1      )
                  (     1          0          0      )
                  (     0          1          0      )

 cart.    s(17) = (  0.0000000  1.0000000  0.0000000 )
                  (  0.0000000  0.0000000  1.0000000 )
                  (  1.0000000  0.0000000  0.0000000 )


      isym = 18     120 deg rotation - cart. axis [-1,1,1]       

 cryst.   s(18) = (     0          0         -1      )
                  (    -1          0          0      )
                  (     0          1          0      )

 cart.    s(18) = (  0.0000000 -1.0000000  0.0000000 )
                  (  0.0000000  0.0000000  1.0000000 )
                  ( -1.0000000  0.0000000  0.0000000 )


      isym = 19     120 deg rotation - cart. axis [1,1,-1]       

 cryst.   s(19) = (     0          0         -1      )
                  (     1          0          0      )
                  (     0         -1          0      )

 cart.    s(19) = (  0.0000000  1.0000000  0.0000000 )
                  (  0.0000000  0.0000000 -1.0000000 )
                  ( -1.0000000  0.0000000  0.0000000 )


      isym = 20     120 deg rotation - cart. axis [1,-1,1]       

 cryst.   s(20) = (     0          0          1      )
                  (    -1          0          0      )
                  (     0         -1          0      )

 cart.    s(20) = (  0.0000000 -1.0000000  0.0000000 )
                  (  0.0000000  0.0000000 -1.0000000 )
                  (  1.0000000  0.0000000  0.0000000 )


      isym = 21     120 deg rotation - cart. axis [1,1,1]        

 cryst.   s(21) = (     0          1          0      )
                  (     0          0          1      )
                  (     1          0          0      )

 cart.    s(21) = (  0.0000000  0.0000000  1.0000000 )
                  (  1.0000000  0.0000000  0.0000000 )
                  (  0.0000000  1.0000000  0.0000000 )


      isym = 22     120 deg rotation - cart. axis [-1,1,-1]      

 cryst.   s(22) = (     0         -1          0      )
                  (     0          0         -1      )
                  (     1          0          0      )

 cart.    s(22) = (  0.0000000  0.0000000  1.0000000 )
                  ( -1.0000000  0.0000000  0.0000000 )
                  (  0.0000000 -1.0000000  0.0000000 )


      isym = 23     120 deg rotation - cart. axis [1,-1,-1]      

 cryst.   s(23) = (     0         -1          0      )
                  (     0          0          1      )
                  (    -1          0          0      )

 cart.    s(23) = (  0.0000000  0.0000000 -1.0000000 )
                  ( -1.0000000  0.0000000  0.0000000 )
                  (  0.0000000  1.0000000  0.0000000 )


      isym = 24     120 deg rotation - cart. axis [-1,-1,1]      

 cryst.   s(24) = (     0          1          0      )
                  (     0          0         -1      )
                  (    -1          0          0      )

 cart.    s(24) = (  0.0000000  0.0000000 -1.0000000 )
                  (  1.0000000  0.0000000  0.0000000 )
                  (  0.0000000 -1.0000000  0.0000000 )


      isym = 25     inversion                                    

 cryst.   s(25) = (    -1          0          0      )
                  (     0         -1          0      )
                  (     0          0         -1      )

 cart.    s(25) = ( -1.0000000  0.0000000  0.0000000 )
                  (  0.0000000 -1.0000000  0.0000000 )
                  (  0.0000000  0.0000000 -1.0000000 )


      isym = 26     inv. 180 deg rotation - cart. axis [0,0,1]   

 cryst.   s(26) = (     1          0          0      )
                  (     0          1          0      )
                  (     0          0         -1      )

 cart.    s(26) = (  1.0000000  0.0000000  0.0000000 )
                  (  0.0000000  1.0000000  0.0000000 )
                  (  0.0000000  0.0000000 -1.0000000 )


      isym = 27     inv. 180 deg rotation - cart. axis [0,1,0]   

 cryst.   s(27) = (     1          0          0      )
                  (     0         -1          0      )
                  (     0          0          1      )

 cart.    s(27) = (  1.0000000  0.0000000  0.0000000 )
                  (  0.0000000 -1.0000000  0.0000000 )
                  (  0.0000000  0.0000000  1.0000000 )


      isym = 28     inv. 180 deg rotation - cart. axis [1,0,0]   

 cryst.   s(28) = (    -1          0          0      )
                  (     0          1          0      )
                  (     0          0          1      )

 cart.    s(28) = ( -1.0000000  0.0000000  0.0000000 )
                  (  0.0000000  1.0000000  0.0000000 )
                  (  0.0000000  0.0000000  1.0000000 )


      isym = 29     inv. 180 deg rotation - cart. axis [1,1,0]   

 cryst.   s(29) = (     0         -1          0      )
                  (    -1          0          0      )
                  (     0          0          1      )

 cart.    s(29) = (  0.0000000 -1.0000000  0.0000000 )
                  ( -1.0000000  0.0000000  0.0000000 )
                  (  0.0000000  0.0000000  1.0000000 )


      isym = 30     inv. 180 deg rotation - cart. axis [1,-1,0]  

 cryst.   s(30) = (     0          1          0      )
                  (     1          0          0      )
                  (     0          0          1      )

 cart.    s(30) = (  0.0000000  1.0000000  0.0000000 )
                  (  1.0000000  0.0000000  0.0000000 )
                  (  0.0000000  0.0000000  1.0000000 )


      isym = 31     inv.  90 deg rotation - cart. axis [0,0,-1]  

 cryst.   s(31) = (     0          1          0      )
                  (    -1          0          0      )
                  (     0          0         -1      )

 cart.    s(31) = (  0.0000000 -1.0000000  0.0000000 )
                  (  1.0000000  0.0000000  0.0000000 )
                  (  0.0000000  0.0000000 -1.0000000 )


      isym = 32     inv.  90 deg rotation - cart. axis [0,0,1]   

 cryst.   s(32) = (     0         -1          0      )
                  (     1          0          0      )
                  (     0          0         -1      )

 cart.    s(32) = (  0.0000000  1.0000000  0.0000000 )
                  ( -1.0000000  0.0000000  0.0000000 )
                  (  0.0000000  0.0000000 -1.0000000 )


      isym = 33     inv. 180 deg rotation - cart. axis [1,0,1]   

 cryst.   s(33) = (     0          0         -1      )
                  (     0          1          0      )
                  (    -1          0          0      )

 cart.    s(33) = (  0.0000000  0.0000000 -1.0000000 )
                  (  0.0000000  1.0000000  0.0000000 )
                  ( -1.0000000  0.0000000  0.0000000 )


      isym = 34     inv. 180 deg rotation - cart. axis [-1,0,1]  

 cryst.   s(34) = (     0          0          1      )
                  (     0          1          0      )
                  (     1          0          0      )

 cart.    s(34) = (  0.0000000  0.0000000  1.0000000 )
                  (  0.0000000  1.0000000  0.0000000 )
                  (  1.0000000  0.0000000  0.0000000 )


      isym = 35     inv.  90 deg rotation - cart. axis [0,1,0]   

 cryst.   s(35) = (     0          0          1      )
                  (     0         -1          0      )
                  (    -1          0          0      )

 cart.    s(35) = (  0.0000000  0.0000000 -1.0000000 )
                  (  0.0000000 -1.0000000  0.0000000 )
                  (  1.0000000  0.0000000  0.0000000 )


      isym = 36     inv.  90 deg rotation - cart. axis [0,-1,0]  

 cryst.   s(36) = (     0          0         -1      )
                  (     0         -1          0      )
                  (     1          0          0      )

 cart.    s(36) = (  0.0000000  0.0000000  1.0000000 )
                  (  0.0000000 -1.0000000  0.0000000 )
                  ( -1.0000000  0.0000000  0.0000000 )


      isym = 37     inv. 180 deg rotation - cart. axis [0,1,1]   

 cryst.   s(37) = (     1          0          0      )
                  (     0          0         -1      )
                  (     0         -1          0      )

 cart.    s(37) = (  1.0000000  0.0000000  0.0000000 )
                  (  0.0000000  0.0000000 -1.0000000 )
                  (  0.0000000 -1.0000000  0.0000000 )


      isym = 38     inv. 180 deg rotation - cart. axis [0,1,-1]  

 cryst.   s(38) = (     1          0          0      )
                  (     0          0          1      )
                  (     0          1          0      )

 cart.    s(38) = (  1.0000000  0.0000000  0.0000000 )
                  (  0.0000000  0.0000000  1.0000000 )
                  (  0.0000000  1.0000000  0.0000000 )


      isym = 39     inv.  90 deg rotation - cart. axis [-1,0,0]  

 cryst.   s(39) = (    -1          0          0      )
                  (     0          0          1      )
                  (     0         -1          0      )

 cart.    s(39) = ( -1.0000000  0.0000000  0.0000000 )
                  (  0.0000000  0.0000000 -1.0000000 )
                  (  0.0000000  1.0000000  0.0000000 )


      isym = 40     inv.  90 deg rotation - cart. axis [1,0,0]   

 cryst.   s(40) = (    -1          0          0      )
                  (     0          0         -1      )
                  (     0          1          0      )

 cart.    s(40) = ( -1.0000000  0.0000000  0.0000000 )
                  (  0.0000000  0.0000000  1.0000000 )
                  (  0.0000000 -1.0000000  0.0000000 )


      isym = 41     inv. 120 deg rotation - cart. axis [-1,-1,-1]

 cryst.   s(41) = (     0          0         -1      )
                  (    -1          0          0      )
                  (     0         -1          0      )

 cart.    s(41) = (  0.0000000 -1.0000000  0.0000000 )
                  (  0.0000000  0.0000000 -1.0000000 )
                  ( -1.0000000  0.0000000  0.0000000 )


      isym = 42     inv. 120 deg rotation - cart. axis [-1,1,1]  

 cryst.   s(42) = (     0          0          1      )
                  (     1          0          0      )
                  (     0         -1          0      )

 cart.    s(42) = (  0.0000000  1.0000000  0.0000000 )
                  (  0.0000000  0.0000000 -1.0000000 )
                  (  1.0000000  0.0000000  0.0000000 )


      isym = 43     inv. 120 deg rotation - cart. axis [1,1,-1]  

 cryst.   s(43) = (     0          0          1      )
                  (    -1          0          0      )
                  (     0          1          0      )

 cart.    s(43) = (  0.0000000 -1.0000000  0.0000000 )
                  (  0.0000000  0.0000000  1.0000000 )
                  (  1.0000000  0.0000000  0.0000000 )


      isym = 44     inv. 120 deg rotation - cart. axis [1,-1,1]  

 cryst.   s(44) = (     0          0         -1      )
                  (     1          0          0      )
                  (     0          1          0      )

 cart.    s(44) = (  0.0000000  1.0000000  0.0000000 )
                  (  0.0000000  0.0000000  1.0000000 )
                  ( -1.0000000  0.0000000  0.0000000 )


      isym = 45     inv. 120 deg rotation - cart. axis [1,1,1]   

 cryst.   s(45) = (     0         -1          0      )
                  (     0          0         -1      )
                  (    -1          0          0      )

 cart.    s(45) = (  0.0000000  0.0000000 -1.0000000 )
                  ( -1.0000000  0.0000000  0.0000000 )
                  (  0.0000000 -1.0000000  0.0000000 )


      isym = 46     inv. 120 deg rotation - cart. axis [-1,1,-1] 

 cryst.   s(46) = (     0          1          0      )
                  (     0          0          1      )
                  (    -1          0          0      )

 cart.    s(46) = (  0.0000000  0.0000000 -1.0000000 )
                  (  1.0000000  0.0000000  0.0000000 )
                  (  0.0000000  1.0000000  0.0000000 )


      isym = 47     inv. 120 deg rotation - cart. axis [1,-1,-1] 

 cryst.   s(47) = (     0          1          0      )
                  (     0          0         -1      )
                  (     1          0          0      )

 cart.    s(47) = (  0.0000000  0.0000000  1.0000000 )
                  (  1.0000000  0.0000000  0.0000000 )
                  (  0.0000000 -1.0000000  0.0000000 )


      isym = 48     inv. 120 deg rotation - cart. axis [-1,-1,1] 

 cryst.   s(48) = (     0         -1          0      )
                  (     0          0          1      )
                  (     1          0          0      )

 cart.    s(48) = (  0.0000000  0.0000000  1.0000000 )
                  ( -1.0000000  0.0000000  0.0000000 )
                  (  0.0000000  1.0000000  0.0000000 )


   Cartesian axes

     site n.     atom                  positions (alat units)
         1           Mg  tau(   1) = (   0.2500000   0.7500000   0.2500000  )
         2           Mg  tau(   2) = (   0.7500000   0.7500000   0.2500000  )
         3           Mg  tau(   3) = (   0.2500000   0.2500000   0.7500000  )
         4           Mg  tau(   4) = (   0.7500000   0.2500000   0.7500000  )
         5           Mg  tau(   5) = (   0.7500000   0.7500000   0.7500000  )
         6           Mg  tau(   6) = (   0.2500000   0.7500000   0.7500000  )
         7           Mg  tau(   7) = (   0.7500000   0.2500000   0.2500000  )
         8           Mg  tau(   8) = (   0.2500000   0.2500000   0.2500000  )
         9           H   tau(   9) = (   0.0000000   0.0000000   0.7469588  )
        10           H   tau(  10) = (   0.0000000   0.7530412   0.5000000  )
        11           H   tau(  11) = (   0.7530412   0.0000000   0.5000000  )
        12           H   tau(  12) = (   0.0000000   0.0000000   0.2530412  )
        13           H   tau(  13) = (   0.0000000   0.7469588   0.0000000  )
        14           H   tau(  14) = (   0.2469588   0.0000000   0.5000000  )
        15           H   tau(  15) = (   0.0000000   0.5000000   0.2469588  )
        16           H   tau(  16) = (   0.0000000   0.2530412   0.0000000  )
        17           H   tau(  17) = (   0.7530412   0.5000000   0.0000000  )
        18           H   tau(  18) = (   0.0000000   0.5000000   0.7530412  )
        19           H   tau(  19) = (   0.0000000   0.2469588   0.5000000  )
        20           H   tau(  20) = (   0.2469588   0.5000000   0.0000000  )
        21           H   tau(  21) = (   0.5000000   0.0000000   0.2469588  )
        22           H   tau(  22) = (   0.5000000   0.7530412   0.0000000  )
        23           H   tau(  23) = (   0.2530412   0.0000000   0.0000000  )
        24           H   tau(  24) = (   0.5000000   0.0000000   0.7530412  )
        25           H   tau(  25) = (   0.5000000   0.7469588   0.5000000  )
        26           H   tau(  26) = (   0.7469588   0.0000000   0.0000000  )
        27           H   tau(  27) = (   0.5000000   0.5000000   0.7469588  )
        28           H   tau(  28) = (   0.5000000   0.2530412   0.5000000  )
        29           H   tau(  29) = (   0.2530412   0.5000000   0.5000000  )
        30           H   tau(  30) = (   0.5000000   0.5000000   0.2530412  )
        31           H   tau(  31) = (   0.5000000   0.2469588   0.0000000  )
        32           H   tau(  32) = (   0.7469588   0.5000000   0.5000000  )
        33           Ru  tau(  33) = (   0.0000000   0.0000000   0.0000000  )
        34           Ru  tau(  34) = (   0.0000000   0.5000000   0.5000000  )
        35           Ru  tau(  35) = (   0.5000000   0.0000000   0.5000000  )
        36           Ru  tau(  36) = (   0.5000000   0.5000000   0.0000000  )

   Crystallographic axes

     site n.     atom                  positions (cryst. coord.)
         1           Mg  tau(   1) = (  0.2500000  0.7500000  0.2500000  )
         2           Mg  tau(   2) = (  0.7500000  0.7500000  0.2500000  )
         3           Mg  tau(   3) = (  0.2500000  0.2500000  0.7500000  )
         4           Mg  tau(   4) = (  0.7500000  0.2500000  0.7500000  )
         5           Mg  tau(   5) = (  0.7500000  0.7500000  0.7500000  )
         6           Mg  tau(   6) = (  0.2500000  0.7500000  0.7500000  )
         7           Mg  tau(   7) = (  0.7500000  0.2500000  0.2500000  )
         8           Mg  tau(   8) = (  0.2500000  0.2500000  0.2500000  )
         9           H   tau(   9) = (  0.0000000  0.0000000  0.7469588  )
        10           H   tau(  10) = (  0.0000000  0.7530412  0.5000000  )
        11           H   tau(  11) = (  0.7530412  0.0000000  0.5000000  )
        12           H   tau(  12) = (  0.0000000  0.0000000  0.2530412  )
        13           H   tau(  13) = (  0.0000000  0.7469588  0.0000000  )
        14           H   tau(  14) = (  0.2469588  0.0000000  0.5000000  )
        15           H   tau(  15) = (  0.0000000  0.5000000  0.2469588  )
        16           H   tau(  16) = (  0.0000000  0.2530412  0.0000000  )
        17           H   tau(  17) = (  0.7530412  0.5000000  0.0000000  )
        18           H   tau(  18) = (  0.0000000  0.5000000  0.7530412  )
        19           H   tau(  19) = (  0.0000000  0.2469588  0.5000000  )
        20           H   tau(  20) = (  0.2469588  0.5000000  0.0000000  )
        21           H   tau(  21) = (  0.5000000  0.0000000  0.2469588  )
        22           H   tau(  22) = (  0.5000000  0.7530412  0.0000000  )
        23           H   tau(  23) = (  0.2530412  0.0000000  0.0000000  )
        24           H   tau(  24) = (  0.5000000  0.0000000  0.7530412  )
        25           H   tau(  25) = (  0.5000000  0.7469588  0.5000000  )
        26           H   tau(  26) = (  0.7469588  0.0000000  0.0000000  )
        27           H   tau(  27) = (  0.5000000  0.5000000  0.7469588  )
        28           H   tau(  28) = (  0.5000000  0.2530412  0.5000000  )
        29           H   tau(  29) = (  0.2530412  0.5000000  0.5000000  )
        30           H   tau(  30) = (  0.5000000  0.5000000  0.2530412  )
        31           H   tau(  31) = (  0.5000000  0.2469588  0.0000000  )
        32           H   tau(  32) = (  0.7469588  0.5000000  0.5000000  )
        33           Ru  tau(  33) = (  0.0000000  0.0000000  0.0000000  )
        34           Ru  tau(  34) = (  0.0000000  0.5000000  0.5000000  )
        35           Ru  tau(  35) = (  0.5000000  0.0000000  0.5000000  )
        36           Ru  tau(  36) = (  0.5000000  0.5000000  0.0000000  )

     number of k points=    10  Gaussian smearing, width (Ry)=  0.0200
                       cart. coord. in units 2pi/alat
        k(    1) = (   0.0000000   0.0000000   0.0000000), wk =   0.0312500
        k(    2) = (   0.0000000   0.0000000   0.2500000), wk =   0.1875000
        k(    3) = (   0.0000000   0.0000000  -0.5000000), wk =   0.0937500
        k(    4) = (   0.0000000   0.2500000   0.2500000), wk =   0.3750000
        k(    5) = (   0.0000000   0.2500000  -0.5000000), wk =   0.3750000
        k(    6) = (   0.0000000  -0.5000000  -0.5000000), wk =   0.0937500
        k(    7) = (   0.2500000   0.2500000   0.2500000), wk =   0.2500000
        k(    8) = (   0.2500000   0.2500000  -0.5000000), wk =   0.3750000
        k(    9) = (   0.2500000  -0.5000000  -0.5000000), wk =   0.1875000
        k(   10) = (  -0.5000000  -0.5000000  -0.5000000), wk =   0.0312500

                       cryst. coord.
        k(    1) = (   0.0000000   0.0000000   0.0000000), wk =   0.0312500
        k(    2) = (   0.0000000   0.0000000   0.2500000), wk =   0.1875000
        k(    3) = (   0.0000000   0.0000000  -0.5000000), wk =   0.0937500
        k(    4) = (   0.0000000   0.2500000   0.2500000), wk =   0.3750000
        k(    5) = (   0.0000000   0.2500000  -0.5000000), wk =   0.3750000
        k(    6) = (   0.0000000  -0.5000000  -0.5000000), wk =   0.0937500
        k(    7) = (   0.2500000   0.2500000   0.2500000), wk =   0.2500000
        k(    8) = (   0.2500000   0.2500000  -0.5000000), wk =   0.3750000
        k(    9) = (   0.2500000  -0.5000000  -0.5000000), wk =   0.1875000
        k(   10) = (  -0.5000000  -0.5000000  -0.5000000), wk =   0.0312500

     Dense  grid:  1160031 G-vectors     FFT dimensions: ( 135, 135, 135)

     Smooth grid:   223135 G-vectors     FFT dimensions: (  75,  75,  75)

     Dynamical RAM for                 wfc:       0.82 MB

     Dynamical RAM for     wfc (w. buffer):       4.95 MB

     Dynamical RAM for           str. fact:       1.66 MB

     Dynamical RAM for           local pot:       0.00 MB

     Dynamical RAM for          nlocal pot:       2.45 MB

     Dynamical RAM for                qrad:       7.91 MB

     Dynamical RAM for          rho,v,vnew:       3.75 MB

     Dynamical RAM for               rhoin:       1.25 MB

     Dynamical RAM for            rho*nmix:       8.85 MB

     Dynamical RAM for           G-vectors:       2.13 MB

     Dynamical RAM for          h,s,v(r/c):       0.70 MB

     Dynamical RAM for          <psi|beta>:       0.17 MB

     Dynamical RAM for                 psi:       1.65 MB

     Dynamical RAM for                hpsi:       1.65 MB

     Dynamical RAM for                spsi:       1.65 MB

     Dynamical RAM for      wfcinit/wfcrot:       3.78 MB

     Dynamical RAM for           addusdens:      58.36 MB

     Dynamical RAM for          addusforce:      71.18 MB

     Dynamical RAM for         addusstress:      55.73 MB

     Estimated static dynamical RAM per process >      29.77 MB

     Estimated max dynamical RAM per process >     109.80 MB

     Estimated total dynamical RAM >       6.59 GB

     Initial potential from superposition of free atoms

     starting charge     103.9896, renormalised to     104.0000
     Starting wfcs are  128 randomized atomic wfcs
     Checking if some PAW data can be deallocated... 
       PAW data deallocated on   48 nodes for type:  2
       PAW data deallocated on   60 nodes for type:  3

     total cpu time spent up to now is        2.9 secs

     Self-consistent Calculation

     iteration #  1     ecut=    90.00 Ry     beta= 0.40
     Davidson diagonalization with overlap

---- Real-time Memory Report at c_bands before calling an iterative solver
           134 MiB given to the printing process from OS
             0 MiB allocation reported by mallinfo(arena+hblkhd)
        214840 MiB available memory on the node where the printing process lives
------------------
     ethr =  1.00E-02,  avg # of iterations =  2.5

     total cpu time spent up to now is        4.7 secs

     total energy              =   -1998.57734109 Ry
     estimated scf accuracy    <       1.37396862 Ry

     iteration #  2     ecut=    90.00 Ry     beta= 0.40
     Davidson diagonalization with overlap

---- Real-time Memory Report at c_bands before calling an iterative solver
           159 MiB given to the printing process from OS
             0 MiB allocation reported by mallinfo(arena+hblkhd)
        213327 MiB available memory on the node where the printing process lives
------------------
     ethr =  1.32E-03,  avg # of iterations =  2.0

     total cpu time spent up to now is        6.3 secs

     total energy              =   -1998.50646829 Ry
     estimated scf accuracy    <       0.33620520 Ry

     iteration #  3     ecut=    90.00 Ry     beta= 0.40
     Davidson diagonalization with overlap

---- Real-time Memory Report at c_bands before calling an iterative solver
           161 MiB given to the printing process from OS
             0 MiB allocation reported by mallinfo(arena+hblkhd)
        213282 MiB available memory on the node where the printing process lives
------------------
     ethr =  3.23E-04,  avg # of iterations =  2.8

     total cpu time spent up to now is        8.2 secs

     total energy              =   -1998.56764557 Ry
     estimated scf accuracy    <       0.00486335 Ry

     iteration #  4     ecut=    90.00 Ry     beta= 0.40
     Davidson diagonalization with overlap

---- Real-time Memory Report at c_bands before calling an iterative solver
           161 MiB given to the printing process from OS
             0 MiB allocation reported by mallinfo(arena+hblkhd)
        213279 MiB available memory on the node where the printing process lives
------------------
     c_bands:  2 eigenvalues not converged
     ethr =  4.68E-06,  avg # of iterations = 10.9

     total cpu time spent up to now is       11.3 secs

     total energy              =   -1998.57473183 Ry
     estimated scf accuracy    <       0.00323832 Ry

     iteration #  5     ecut=    90.00 Ry     beta= 0.40
     Davidson diagonalization with overlap

---- Real-time Memory Report at c_bands before calling an iterative solver
           162 MiB given to the printing process from OS
             0 MiB allocation reported by mallinfo(arena+hblkhd)
        213276 MiB available memory on the node where the printing process lives
------------------
     ethr =  3.11E-06,  avg # of iterations =  3.0

     total cpu time spent up to now is       13.1 secs

     total energy              =   -1998.57460424 Ry
     estimated scf accuracy    <       0.00110550 Ry

     iteration #  6     ecut=    90.00 Ry     beta= 0.40
     Davidson diagonalization with overlap

---- Real-time Memory Report at c_bands before calling an iterative solver
           163 MiB given to the printing process from OS
             0 MiB allocation reported by mallinfo(arena+hblkhd)
        213275 MiB available memory on the node where the printing process lives
------------------
     c_bands:  1 eigenvalues not converged
     ethr =  1.06E-06,  avg # of iterations =  9.0

     total cpu time spent up to now is       15.4 secs

     total energy              =   -1998.57493177 Ry
     estimated scf accuracy    <       0.00082501 Ry

     iteration #  7     ecut=    90.00 Ry     beta= 0.40
     Davidson diagonalization with overlap

---- Real-time Memory Report at c_bands before calling an iterative solver
           164 MiB given to the printing process from OS
             0 MiB allocation reported by mallinfo(arena+hblkhd)
        216447 MiB available memory on the node where the printing process lives
------------------
     c_bands:  2 eigenvalues not converged
     ethr =  7.93E-07,  avg # of iterations =  3.8

     total cpu time spent up to now is       17.2 secs

     total energy              =   -1998.57496046 Ry
     estimated scf accuracy    <       0.00010415 Ry

     iteration #  8     ecut=    90.00 Ry     beta= 0.40
     Davidson diagonalization with overlap

---- Real-time Memory Report at c_bands before calling an iterative solver
           164 MiB given to the printing process from OS
             0 MiB allocation reported by mallinfo(arena+hblkhd)
        216438 MiB available memory on the node where the printing process lives
------------------
     ethr =  1.00E-07,  avg # of iterations =  7.9

     total cpu time spent up to now is       19.7 secs

     total energy              =   -1998.57504398 Ry
     estimated scf accuracy    <       0.00008339 Ry

     iteration #  9     ecut=    90.00 Ry     beta= 0.40
     Davidson diagonalization with overlap

---- Real-time Memory Report at c_bands before calling an iterative solver
           165 MiB given to the printing process from OS
             0 MiB allocation reported by mallinfo(arena+hblkhd)
        219602 MiB available memory on the node where the printing process lives
------------------
     ethr =  8.02E-08,  avg # of iterations =  2.0

     total cpu time spent up to now is       21.3 secs

     total energy              =   -1998.57505223 Ry
     estimated scf accuracy    <       0.00000438 Ry

     iteration # 10     ecut=    90.00 Ry     beta= 0.40
     Davidson diagonalization with overlap

---- Real-time Memory Report at c_bands before calling an iterative solver
           166 MiB given to the printing process from OS
             0 MiB allocation reported by mallinfo(arena+hblkhd)
        211568 MiB available memory on the node where the printing process lives
------------------
     ethr =  4.21E-09,  avg # of iterations = 11.1

     total cpu time spent up to now is       24.3 secs

     total energy              =   -1998.57505762 Ry
     estimated scf accuracy    <       0.00000329 Ry

     iteration # 11     ecut=    90.00 Ry     beta= 0.40
     Davidson diagonalization with overlap

---- Real-time Memory Report at c_bands before calling an iterative solver
           166 MiB given to the printing process from OS
             0 MiB allocation reported by mallinfo(arena+hblkhd)
        216494 MiB available memory on the node where the printing process lives
------------------
     ethr =  3.16E-09,  avg # of iterations =  3.7

     total cpu time spent up to now is       26.0 secs

     total energy              =   -1998.57505793 Ry
     estimated scf accuracy    <       0.00000057 Ry

     iteration # 12     ecut=    90.00 Ry     beta= 0.40
     Davidson diagonalization with overlap

---- Real-time Memory Report at c_bands before calling an iterative solver
           166 MiB given to the printing process from OS
             0 MiB allocation reported by mallinfo(arena+hblkhd)
        219541 MiB available memory on the node where the printing process lives
------------------
     ethr =  5.50E-10,  avg # of iterations =  6.7

     total cpu time spent up to now is       28.3 secs

     total energy              =   -1998.57505817 Ry
     estimated scf accuracy    <       0.00000008 Ry

     iteration # 13     ecut=    90.00 Ry     beta= 0.40
     Davidson diagonalization with overlap

---- Real-time Memory Report at c_bands before calling an iterative solver
           166 MiB given to the printing process from OS
             0 MiB allocation reported by mallinfo(arena+hblkhd)
        217404 MiB available memory on the node where the printing process lives
------------------
     ethr =  7.93E-11,  avg # of iterations =  7.4

     total cpu time spent up to now is       30.9 secs

     total energy              =   -1998.57505824 Ry
     estimated scf accuracy    <          8.5E-09 Ry

     iteration # 14     ecut=    90.00 Ry     beta= 0.40
     Davidson diagonalization with overlap

---- Real-time Memory Report at c_bands before calling an iterative solver
           166 MiB given to the printing process from OS
             0 MiB allocation reported by mallinfo(arena+hblkhd)
        215763 MiB available memory on the node where the printing process lives
------------------
     ethr =  8.21E-12,  avg # of iterations =  6.6

     total cpu time spent up to now is       33.3 secs

     End of self-consistent calculation

          k = 0.0000 0.0000 0.0000 ( 28017 PWs)   bands (ev):

   -65.0572 -65.0571 -65.0571 -65.0571 -35.1696 -35.1696 -35.1696 -35.1686
   -35.1686 -35.1686 -35.1685 -35.1685 -35.1685 -35.1679 -35.1679 -35.1679
    -2.7095  -0.6224  -0.6224  -0.6224   1.3510   1.3510   1.3510   1.6063
     1.6063   1.6063   1.8615   1.8615   2.1997   2.1997   2.1997   3.1008
     3.1008   3.1008   3.1008   3.1008   3.1008   3.8346   3.8346   3.8346
     4.4567   4.4567   4.4567   4.5117   4.5117   4.5117   5.4552   5.4552
     5.4552   5.4552   5.4552   5.4552   8.4623   8.4623   8.4624  10.7790
    10.7790  10.7790  12.2784  12.2907  12.2907  12.5002

     occupation numbers 
     1.0000   1.0000   1.0000   1.0000   1.0000   1.0000   1.0000   1.0000
     1.0000   1.0000   1.0000   1.0000   1.0000   1.0000   1.0000   1.0000
     1.0000   1.0000   1.0000   1.0000   1.0000   1.0000   1.0000   1.0000
     1.0000   1.0000   1.0000   1.0000   1.0000   1.0000   1.0000   1.0000
     1.0000   1.0000   1.0000   1.0000   1.0000   1.0000   1.0000   1.0000
     1.0000   1.0000   1.0000   1.0000   1.0000   1.0000   1.0000   1.0000
     1.0000   1.0000   1.0000   1.0000   0.0000   0.0000   0.0000   0.0000
     0.0000   0.0000   0.0000   0.0000   0.0000   0.0000

          k = 0.0000 0.0000 0.2500 ( 27926 PWs)   bands (ev):

   -65.0572 -65.0571 -65.0571 -65.0571 -35.1695 -35.1695 -35.1694 -35.1687
   -35.1687 -35.1686 -35.1685 -35.1685 -35.1685 -35.1682 -35.1680 -35.1680
    -2.4957  -1.0585  -0.4255  -0.4255   0.8919   1.1189   1.1189   1.4926
     1.4926   1.6163   1.9085   2.0194   2.0194   2.1474   2.5461   2.5461
     2.8000   3.1932   3.1932   3.5963   3.5963   3.9217   3.9217   3.9249
     4.4026   4.4101   4.4118   4.4118   5.0150   5.0150   5.3706   5.3706
     5.4458   5.4458   5.4554   5.4554   8.4975   8.9288   8.9288  10.6896
    10.8353  10.9111  10.9111  11.4759  12.4654  12.4658

     occupation numbers 
     1.0000   1.0000   1.0000   1.0000   1.0000   1.0000   1.0000   1.0000
     1.0000   1.0000   1.0000   1.0000   1.0000   1.0000   1.0000   1.0000
     1.0000   1.0000   1.0000   1.0000   1.0000   1.0000   1.0000   1.0000
     1.0000   1.0000   1.0000   1.0000   1.0000   1.0000   1.0000   1.0000
     1.0000   1.0000   1.0000   1.0000   1.0000   1.0000   1.0000   1.0000
     1.0000   1.0000   1.0000   1.0000   1.0000   1.0000   1.0000   1.0000
     1.0000   1.0000   1.0000   1.0000   0.0000   0.0000   0.0000   0.0000
     0.0000   0.0000   0.0000   0.0000   0.0000   0.0000

          k = 0.0000 0.0000-0.5000 ( 27846 PWs)   bands (ev):

   -65.0571 -65.0571 -65.0571 -65.0571 -35.1691 -35.1691 -35.1691 -35.1691
   -35.1688 -35.1688 -35.1686 -35.1685 -35.1683 -35.1683 -35.1682 -35.1682
    -1.8873  -1.8873  -0.0347  -0.0347   0.4743   0.4743   1.1396   1.1396
     1.9067   1.9067   1.9067   1.9067   1.9864   1.9864   2.0254   2.0254
     3.4712   3.4712   3.4712   3.4712   3.8995   3.8995   3.9581   3.9581
     4.1544   4.1544   5.0449   5.0449   5.0449   5.0449   5.3425   5.3425
     5.3425   5.3425   5.4555   5.4556   9.0487   9.0487   9.8728   9.8729
    11.0363  11.0363  11.1288  11.1288  11.4716  11.4716

     occupation numbers 
     1.0000   1.0000   1.0000   1.0000   1.0000   1.0000   1.0000   1.0000
     1.0000   1.0000   1.0000   1.0000   1.0000   1.0000   1.0000   1.0000
     1.0000   1.0000   1.0000   1.0000   1.0000   1.0000   1.0000   1.0000
     1.0000   1.0000   1.0000   1.0000   1.0000   1.0000   1.0000   1.0000
     1.0000   1.0000   1.0000   1.0000   1.0000   1.0000   1.0000   1.0000
     1.0000   1.0000   1.0000   1.0000   1.0000   1.0000   1.0000   1.0000
     1.0000   1.0000   1.0000   1.0000   0.0000   0.0000   0.0000   0.0000
     0.0000   0.0000   0.0000   0.0000   0.0000   0.0000

          k = 0.0000 0.2500 0.2500 ( 27891 PWs)   bands (ev):

   -65.0571 -65.0571 -65.0571 -65.0571 -35.1693 -35.1693 -35.1693 -35.1689
   -35.1686 -35.1686 -35.1685 -35.1684 -35.1684 -35.1684 -35.1681 -35.1680
    -2.2829  -0.8486  -0.8486  -0.2305   0.6312   0.8244   0.8244   1.5915
     1.6314   1.6772   1.7222   1.7222   1.7235   2.5536   2.5536   2.6600
     2.6600   2.7382   3.4152   3.4950   3.8776   3.8776   4.0094   4.4684
     4.4684   4.5762   4.6546   4.9542   4.9928   5.0796   5.3268   5.3805
     5.3805   5.4325   5.4402   5.4402   8.9041   8.9041   9.1258  10.7991
    10.8483  10.9592  10.9592  11.1587  11.2759  12.2683

     occupation numbers 
     1.0000   1.0000   1.0000   1.0000   1.0000   1.0000   1.0000   1.0000
     1.0000   1.0000   1.0000   1.0000   1.0000   1.0000   1.0000   1.0000
     1.0000   1.0000   1.0000   1.0000   1.0000   1.0000   1.0000   1.0000
     1.0000   1.0000   1.0000   1.0000   1.0000   1.0000   1.0000   1.0000
     1.0000   1.0000   1.0000   1.0000   1.0000   1.0000   1.0000   1.0000
     1.0000   1.0000   1.0000   1.0000   1.0000   1.0000   1.0000   1.0000
     1.0000   1.0000   1.0000   1.0000   0.0000   0.0000   0.0000   0.0000
     0.0000   0.0000   0.0000   0.0000   0.0000   0.0000

          k = 0.0000 0.2500-0.5000 ( 27912 PWs)   bands (ev):

   -65.0571 -65.0571 -65.0571 -65.0571 -35.1692 -35.1692 -35.1690 -35.1690
   -35.1690 -35.1690 -35.1684 -35.1684 -35.1684 -35.1684 -35.1682 -35.1682
    -1.6765  -1.6765  -0.2549  -0.2549   0.3389   0.3389   1.1407   1.1407
     1.5054   1.5054   1.7073   1.7073   2.0367   2.0367   2.6259   2.6259
     2.9912   2.9912   3.0178   3.0178   4.2833   4.2833   4.6039   4.6039
     4.6327   4.6327   5.0536   5.0536   5.0703   5.0703   5.3266   5.3266
     5.3283   5.3283   5.4289   5.4289   9.3148   9.3149   9.5953   9.5953
    10.9818  10.9818  11.0905  11.0905  11.4896  11.4897

     occupation numbers 
     1.0000   1.0000   1.0000   1.0000   1.0000   1.0000   1.0000   1.0000
     1.0000   1.0000   1.0000   1.0000   1.0000   1.0000   1.0000   1.0000
     1.0000   1.0000   1.0000   1.0000   1.0000   1.0000   1.0000   1.0000
     1.0000   1.0000   1.0000   1.0000   1.0000   1.0000   1.0000   1.0000
     1.0000   1.0000   1.0000   1.0000   1.0000   1.0000   1.0000   1.0000
     1.0000   1.0000   1.0000   1.0000   1.0000   1.0000   1.0000   1.0000
     1.0000   1.0000   1.0000   1.0000   0.0000   0.0000   0.0000   0.0000
     0.0000   0.0000   0.0000   0.0000   0.0000   0.0000

          k = 0.0000-0.5000-0.5000 ( 27916 PWs)   bands (ev):

   -65.0571 -65.0571 -65.0571 -65.0571 -35.1692 -35.1692 -35.1692 -35.1692
   -35.1687 -35.1687 -35.1687 -35.1687 -35.1682 -35.1682 -35.1682 -35.1682
    -1.0744  -1.0744  -1.0744  -1.0744   0.8168   0.8168   0.8168   0.8168
     1.3880   1.3880   1.3880   1.3880   2.4150   2.4150   2.4150   2.4150
     2.8500   2.8500   2.8500   2.8500   4.9975   4.9975   4.9975   4.9975
     5.0140   5.0140   5.0140   5.0141   5.0821   5.0821   5.0821   5.0821
     5.3414   5.3414   5.3414   5.3414   9.6309   9.6309   9.6309   9.6309
    10.4545  10.4545  10.4545  10.4545  11.3616  11.3616

     occupation numbers 
     1.0000   1.0000   1.0000   1.0000   1.0000   1.0000   1.0000   1.0000
     1.0000   1.0000   1.0000   1.0000   1.0000   1.0000   1.0000   1.0000
     1.0000   1.0000   1.0000   1.0000   1.0000   1.0000   1.0000   1.0000
     1.0000   1.0000   1.0000   1.0000   1.0000   1.0000   1.0000   1.0000
     1.0000   1.0000   1.0000   1.0000   1.0000   1.0000   1.0000   1.0000
     1.0000   1.0000   1.0000   1.0000   1.0000   1.0000   1.0000   1.0000
     1.0000   1.0000   1.0000   1.0000   0.0000   0.0000   0.0000   0.0000
     0.0000   0.0000   0.0000   0.0000   0.0000   0.0000

          k = 0.2500 0.2500 0.2500 ( 27898 PWs)   bands (ev):

   -65.0571 -65.0571 -65.0571 -65.0571 -35.1694 -35.1694 -35.1694 -35.1688
   -35.1686 -35.1686 -35.1686 -35.1684 -35.1684 -35.1683 -35.1681 -35.1681
    -2.0715  -0.6428  -0.6428  -0.6428   0.6271   0.6271   0.6271   1.6065
     1.6065   1.6671   1.6671   1.6671   1.6863   1.6863   1.6863   2.3917
     3.4675   3.4675   3.4675   4.0403   4.0404   4.0404   4.4115   4.4115
     4.6559   4.6559   4.6559   4.9113   5.1679   5.1679   5.3414   5.3414
     5.3414   5.4205   5.4205   5.4205   9.0747   9.0747   9.0747  10.4278
    10.9888  10.9888  11.1333  11.1333  11.1333  11.9005

     occupation numbers 
     1.0000   1.0000   1.0000   1.0000   1.0000   1.0000   1.0000   1.0000
     1.0000   1.0000   1.0000   1.0000   1.0000   1.0000   1.0000   1.0000
     1.0000   1.0000   1.0000   1.0000   1.0000   1.0000   1.0000   1.0000
     1.0000   1.0000   1.0000   1.0000   1.0000   1.0000   1.0000   1.0000
     1.0000   1.0000   1.0000   1.0000   1.0000   1.0000   1.0000   1.0000
     1.0000   1.0000   1.0000   1.0000   1.0000   1.0000   1.0000   1.0000
     1.0000   1.0000   1.0000   1.0000   0.0000   0.0000   0.0000   0.0000
     0.0000   0.0000   0.0000   0.0000   0.0000   0.0000

          k = 0.2500 0.2500-0.5000 ( 27902 PWs)   bands (ev):

   -65.0571 -65.0571 -65.0571 -65.0571 -35.1694 -35.1694 -35.1692 -35.1692
   -35.1686 -35.1686 -35.1683 -35.1683 -35.1682 -35.1682 -35.1682 -35.1682
    -1.4690  -1.4690  -0.1363  -0.1363   0.0184   0.0184   1.1030   1.1030
     1.4849   1.4849   1.6113   1.6113   1.6393   1.6393   1.8508   1.8508
     3.4815   3.4815   4.1628   4.1628   4.3532   4.3532   4.4412   4.4412
     4.9150   4.9150   5.0620   5.0620   5.0920   5.0920   5.3029   5.3029
     5.3255   5.3255   5.4033   5.4033   9.4101   9.4101   9.4212   9.4212
    10.8494  10.8494  10.9011  10.9012  11.5922  11.5930

     occupation numbers 
     1.0000   1.0000   1.0000   1.0000   1.0000   1.0000   1.0000   1.0000
     1.0000   1.0000   1.0000   1.0000   1.0000   1.0000   1.0000   1.0000
     1.0000   1.0000   1.0000   1.0000   1.0000   1.0000   1.0000   1.0000
     1.0000   1.0000   1.0000   1.0000   1.0000   1.0000   1.0000   1.0000
     1.0000   1.0000   1.0000   1.0000   1.0000   1.0000   1.0000   1.0000
     1.0000   1.0000   1.0000   1.0000   1.0000   1.0000   1.0000   1.0000
     1.0000   1.0000   1.0000   1.0000   0.0000   0.0000   0.0000   0.0000
     0.0000   0.0000   0.0000   0.0000   0.0000   0.0000

          k = 0.2500-0.5000-0.5000 ( 27964 PWs)   bands (ev):

   -65.0571 -65.0571 -65.0571 -65.0571 -35.1695 -35.1695 -35.1695 -35.1695
   -35.1684 -35.1684 -35.1684 -35.1683 -35.1682 -35.1682 -35.1682 -35.1682
    -0.8821  -0.8821  -0.8821  -0.8821   0.5731   0.5731   0.5731   0.5731
     1.3875   1.3875   1.3875   1.3876   1.6176   1.6176   1.6176   1.6177
     3.9921   3.9921   3.9921   3.9921   4.9945   4.9945   4.9945   4.9945
     5.0155   5.0155   5.0155   5.0155   5.0806   5.0806   5.0806   5.0806
     5.3097   5.3097   5.3097   5.3097   9.4873   9.4873   9.4873   9.4873
    10.4855  10.4855  10.4855  10.4855  11.1512  11.1512

     occupation numbers 
     1.0000   1.0000   1.0000   1.0000   1.0000   1.0000   1.0000   1.0000
     1.0000   1.0000   1.0000   1.0000   1.0000   1.0000   1.0000   1.0000
     1.0000   1.0000   1.0000   1.0000   1.0000   1.0000   1.0000   1.0000
     1.0000   1.0000   1.0000   1.0000   1.0000   1.0000   1.0000   1.0000
     1.0000   1.0000   1.0000   1.0000   1.0000   1.0000   1.0000   1.0000
     1.0000   1.0000   1.0000   1.0000   1.0000   1.0000   1.0000   1.0000
     1.0000   1.0000   1.0000   1.0000   0.0000   0.0000   0.0000   0.0000
     0.0000   0.0000   0.0000   0.0000   0.0000   0.0000

          k =-0.5000-0.5000-0.5000 ( 27832 PWs)   bands (ev):

   -65.0571 -65.0571 -65.0571 -65.0571 -35.1697 -35.1697 -35.1697 -35.1697
   -35.1682 -35.1682 -35.1682 -35.1682 -35.1682 -35.1682 -35.1682 -35.1682
    -0.5257  -0.5257  -0.5257  -0.5256   0.0760   0.0760   0.0760   0.0760
     1.3871   1.3871   1.3871   1.3871   1.3871   1.3871   1.3871   1.3871
     4.9145   4.9145   4.9145   4.9145   4.9919   4.9919   4.9919   4.9919
     4.9919   4.9919   4.9919   4.9919   5.0788   5.0788   5.0788   5.0788
     5.0788   5.0788   5.0788   5.0788   9.4682   9.4682   9.4682   9.4682
    10.5170  10.5170  10.5170  10.5170  10.5170  10.5170

     occupation numbers 
     1.0000   1.0000   1.0000   1.0000   1.0000   1.0000   1.0000   1.0000
     1.0000   1.0000   1.0000   1.0000   1.0000   1.0000   1.0000   1.0000
     1.0000   1.0000   1.0000   1.0000   1.0000   1.0000   1.0000   1.0000
     1.0000   1.0000   1.0000   1.0000   1.0000   1.0000   1.0000   1.0000
     1.0000   1.0000   1.0000   1.0000   1.0000   1.0000   1.0000   1.0000
     1.0000   1.0000   1.0000   1.0000   1.0000   1.0000   1.0000   1.0000
     1.0000   1.0000   1.0000   1.0000   0.0000   0.0000   0.0000   0.0000
     0.0000   0.0000   0.0000   0.0000   0.0000   0.0000

     the Fermi energy is     6.7917 ev

!    total energy              =   -1998.57505825 Ry
     estimated scf accuracy    <          5.0E-09 Ry
     smearing contrib. (-TS)   =      -0.00000000 Ry
     internal energy E=F+TS    =   -1998.57505825 Ry

     The total energy is F=E-TS. E is the sum of the following terms:
     one-electron contribution =    -514.50403013 Ry
     hartree contribution      =     286.41032245 Ry
     xc contribution           =    -108.78950880 Ry
     ewald contribution        =    -456.80278467 Ry
     one-center paw contrib.   =   -1204.88905709 Ry
      -> PAW hartree energy AE =       0.63126416 Ry
      -> PAW hartree energy PS =      -0.63005437 Ry
      -> PAW xc energy AE      =     -31.60082308 Ry
      -> PAW xc energy PS      =       1.21192402 Ry
      -> total E_H with PAW    =     286.41153225 Ry
      -> total E_XC with PAW   =    -139.17840786 Ry

     convergence has been achieved in  14 iterations

     Forces acting on atoms (cartesian axes, Ry/au):

     atom    1 type  2   force =    -0.00000005    0.00000005   -0.00000005
     atom    2 type  2   force =     0.00000005    0.00000005   -0.00000005
     atom    3 type  2   force =    -0.00000005   -0.00000005    0.00000005
     atom    4 type  2   force =     0.00000005   -0.00000005    0.00000005
     atom    5 type  2   force =     0.00000005    0.00000005    0.00000005
     atom    6 type  2   force =    -0.00000005    0.00000005    0.00000005
     atom    7 type  2   force =     0.00000005   -0.00000005   -0.00000005
     atom    8 type  2   force =    -0.00000005   -0.00000005   -0.00000005
     atom    9 type  1   force =     0.00000000    0.00000000   -0.00366273
     atom   10 type  1   force =    -0.00000000    0.00366270    0.00000000
     atom   11 type  1   force =     0.00366270    0.00000000    0.00000000
     atom   12 type  1   force =     0.00000000    0.00000000    0.00366273
     atom   13 type  1   force =     0.00000000   -0.00366273    0.00000000
     atom   14 type  1   force =    -0.00366270    0.00000000    0.00000000
     atom   15 type  1   force =     0.00000000    0.00000000   -0.00366270
     atom   16 type  1   force =     0.00000000    0.00366273    0.00000000
     atom   17 type  1   force =     0.00366270    0.00000000    0.00000000
     atom   18 type  1   force =     0.00000000    0.00000000    0.00366270
     atom   19 type  1   force =     0.00000000   -0.00366270    0.00000000
     atom   20 type  1   force =    -0.00366270    0.00000000    0.00000000
     atom   21 type  1   force =     0.00000000    0.00000000   -0.00366270
     atom   22 type  1   force =     0.00000000    0.00366270    0.00000000
     atom   23 type  1   force =     0.00366273    0.00000000    0.00000000
     atom   24 type  1   force =     0.00000000    0.00000000    0.00366270
     atom   25 type  1   force =     0.00000000   -0.00366253    0.00000000
     atom   26 type  1   force =    -0.00366273    0.00000000    0.00000000
     atom   27 type  1   force =     0.00000000    0.00000000   -0.00366253
     atom   28 type  1   force =     0.00000000    0.00366253    0.00000000
     atom   29 type  1   force =     0.00366253    0.00000000    0.00000000
     atom   30 type  1   force =     0.00000000    0.00000000    0.00366253
     atom   31 type  1   force =     0.00000000   -0.00366270    0.00000000
     atom   32 type  1   force =    -0.00366253    0.00000000    0.00000000
     atom   33 type  3   force =     0.00000000    0.00000000    0.00000000
     atom   34 type  3   force =     0.00000000    0.00000000    0.00000000
     atom   35 type  3   force =     0.00000000    0.00000000    0.00000000
     atom   36 type  3   force =     0.00000000    0.00000000    0.00000000
     The non-local contrib.  to forces
     atom    1 type  2   force =    -0.00000027    0.00000027   -0.00000027
     atom    2 type  2   force =     0.00000027    0.00000027   -0.00000027
     atom    3 type  2   force =    -0.00000027   -0.00000027    0.00000027
     atom    4 type  2   force =     0.00000027   -0.00000027    0.00000027
     atom    5 type  2   force =     0.00000027    0.00000027    0.00000027
     atom    6 type  2   force =    -0.00000027    0.00000027    0.00000027
     atom    7 type  2   force =     0.00000027   -0.00000027   -0.00000027
     atom    8 type  2   force =    -0.00000027   -0.00000027   -0.00000027
     atom    9 type  1   force =     0.00000000    0.00000000    0.02243473
     atom   10 type  1   force =     0.00000000   -0.02243484    0.00000000
     atom   11 type  1   force =    -0.02243484   -0.00000000    0.00000000
     atom   12 type  1   force =     0.00000000   -0.00000000   -0.02243473
     atom   13 type  1   force =    -0.00000000    0.02243473   -0.00000000
     atom   14 type  1   force =     0.02243484    0.00000000    0.00000000
     atom   15 type  1   force =     0.00000000   -0.00000000    0.02243484
     atom   16 type  1   force =     0.00000000   -0.02243473    0.00000000
     atom   17 type  1   force =    -0.02243484   -0.00000000    0.00000000
     atom   18 type  1   force =     0.00000000    0.00000000   -0.02243484
     atom   19 type  1   force =     0.00000000    0.02243484    0.00000000
     atom   20 type  1   force =     0.02243484    0.00000000    0.00000000
     atom   21 type  1   force =     0.00000000    0.00000000    0.02243484
     atom   22 type  1   force =     0.00000000   -0.02243484    0.00000000
     atom   23 type  1   force =    -0.02243473    0.00000000    0.00000000
     atom   24 type  1   force =     0.00000000   -0.00000000   -0.02243484
     atom   25 type  1   force =     0.00000000    0.02243491    0.00000000
     atom   26 type  1   force =     0.02243473   -0.00000000    0.00000000
     atom   27 type  1   force =     0.00000000    0.00000000    0.02243491
     atom   28 type  1   force =    -0.00000000   -0.02243491    0.00000000
     atom   29 type  1   force =    -0.02243491    0.00000000    0.00000000
     atom   30 type  1   force =     0.00000000    0.00000000   -0.02243491
     atom   31 type  1   force =     0.00000000    0.02243484    0.00000000
     atom   32 type  1   force =     0.02243491    0.00000000    0.00000000
     atom   33 type  3   force =     0.00000000    0.00000000    0.00000000
     atom   34 type  3   force =     0.00000000    0.00000000    0.00000000
     atom   35 type  3   force =     0.00000000    0.00000000    0.00000000
     atom   36 type  3   force =     0.00000000    0.00000000    0.00000000
     The ionic contribution  to forces
     atom    1 type  2   force =    -0.00000000    0.00000000   -0.00000000
     atom    2 type  2   force =     0.00000000    0.00000000    0.00000000
     atom    3 type  2   force =    -0.00000000   -0.00000000   -0.00000000
     atom    4 type  2   force =     0.00000000   -0.00000000    0.00000000
     atom    5 type  2   force =     0.00000000    0.00000000   -0.00000000
     atom    6 type  2   force =    -0.00000000    0.00000000    0.00000000
     atom    7 type  2   force =     0.00000000   -0.00000000   -0.00000000
     atom    8 type  2   force =    -0.00000000   -0.00000000    0.00000000
     atom    9 type  1   force =    -0.00000000   -0.00000000   -2.45700671
     atom   10 type  1   force =    -0.00000000    2.45700671    0.00000000
     atom   11 type  1   force =     2.45700671   -0.00000000    0.00000000
     atom   12 type  1   force =    -0.00000000   -0.00000000    2.45700671
     atom   13 type  1   force =     0.00000000   -2.45700671   -0.00000000
     atom   14 type  1   force =    -2.45700671    0.00000000    0.00000000
     atom   15 type  1   force =    -0.00000000    0.00000000   -2.45700671
     atom   16 type  1   force =    -0.00000000    2.45700671   -0.00000000
     atom   17 type  1   force =     2.45700671   -0.00000000   -0.00000000
     atom   18 type  1   force =    -0.00000000    0.00000000    2.45700671
     atom   19 type  1   force =     0.00000000   -2.45700671    0.00000000
     atom   20 type  1   force =    -2.45700671    0.00000000   -0.00000000
     atom   21 type  1   force =     0.00000000   -0.00000000   -2.45700671
     atom   22 type  1   force =     0.00000000    2.45700671   -0.00000000
     atom   23 type  1   force =     2.45700671   -0.00000000   -0.00000000
     atom   24 type  1   force =     0.00000000   -0.00000000    2.45700671
     atom   25 type  1   force =     0.00000000   -2.45700671   -0.00000000
     atom   26 type  1   force =    -2.45700671    0.00000000   -0.00000000
     atom   27 type  1   force =    -0.00000000   -0.00000000   -2.45700671
     atom   28 type  1   force =    -0.00000000    2.45700671    0.00000000
     atom   29 type  1   force =     2.45700671   -0.00000000    0.00000000
     atom   30 type  1   force =     0.00000000    0.00000000    2.45700671
     atom   31 type  1   force =     0.00000000   -2.45700671   -0.00000000
     atom   32 type  1   force =    -2.45700671    0.00000000   -0.00000000
     atom   33 type  3   force =    -0.00000000   -0.00000000   -0.00000000
     atom   34 type  3   force =    -0.00000000    0.00000000    0.00000000
     atom   35 type  3   force =     0.00000000   -0.00000000    0.00000000
     atom   36 type  3   force =     0.00000000    0.00000000   -0.00000000
     The local contribution  to forces
     atom    1 type  2   force =     0.00000003   -0.00000003    0.00000003
     atom    2 type  2   force =    -0.00000003   -0.00000003    0.00000003
     atom    3 type  2   force =     0.00000003    0.00000003   -0.00000003
     atom    4 type  2   force =    -0.00000003    0.00000003   -0.00000003
     atom    5 type  2   force =    -0.00000003   -0.00000003   -0.00000003
     atom    6 type  2   force =     0.00000003   -0.00000003   -0.00000003
     atom    7 type  2   force =    -0.00000003    0.00000003    0.00000003
     atom    8 type  2   force =     0.00000003    0.00000003    0.00000003
     atom    9 type  1   force =     0.00000000    0.00000000    2.43090503
     atom   10 type  1   force =    -0.00000000   -2.43090523   -0.00000000
     atom   11 type  1   force =    -2.43090523   -0.00000000   -0.00000000
     atom   12 type  1   force =     0.00000000    0.00000000   -2.43090503
     atom   13 type  1   force =     0.00000000    2.43090503    0.00000000
     atom   14 type  1   force =     2.43090523    0.00000000    0.00000000
     atom   15 type  1   force =     0.00000000    0.00000000    2.43090523
     atom   16 type  1   force =    -0.00000000   -2.43090503    0.00000000
     atom   17 type  1   force =    -2.43090523   -0.00000000    0.00000000
     atom   18 type  1   force =    -0.00000000   -0.00000000   -2.43090523
     atom   19 type  1   force =     0.00000000    2.43090523    0.00000000
     atom   20 type  1   force =     2.43090523    0.00000000    0.00000000
     atom   21 type  1   force =     0.00000000    0.00000000    2.43090523
     atom   22 type  1   force =    -0.00000000   -2.43090523    0.00000000
     atom   23 type  1   force =    -2.43090503   -0.00000000    0.00000000
     atom   24 type  1   force =    -0.00000000   -0.00000000   -2.43090523
     atom   25 type  1   force =     0.00000000    2.43090665    0.00000000
     atom   26 type  1   force =     2.43090503    0.00000000    0.00000000
     atom   27 type  1   force =     0.00000000    0.00000000    2.43090665
     atom   28 type  1   force =     0.00000000   -2.43090665    0.00000000
     atom   29 type  1   force =    -2.43090665   -0.00000000    0.00000000
     atom   30 type  1   force =     0.00000000    0.00000000   -2.43090665
     atom   31 type  1   force =     0.00000000    2.43090523    0.00000000
     atom   32 type  1   force =     2.43090665    0.00000000    0.00000000
     atom   33 type  3   force =     0.00000000    0.00000000    0.00000000
     atom   34 type  3   force =     0.00000000    0.00000000    0.00000000
     atom   35 type  3   force =     0.00000000    0.00000000    0.00000000
     atom   36 type  3   force =     0.00000000    0.00000000    0.00000000
     The core correction contribution to forces
     atom    1 type  2   force =     0.00000004   -0.00000004    0.00000004
     atom    2 type  2   force =    -0.00000004   -0.00000004    0.00000004
     atom    3 type  2   force =     0.00000004    0.00000004   -0.00000004
     atom    4 type  2   force =    -0.00000004    0.00000004   -0.00000004
     atom    5 type  2   force =    -0.00000004   -0.00000004   -0.00000004
     atom    6 type  2   force =     0.00000004   -0.00000004   -0.00000004
     atom    7 type  2   force =    -0.00000004    0.00000004    0.00000004
     atom    8 type  2   force =     0.00000004    0.00000004    0.00000004
     atom    9 type  1   force =     0.00000000    0.00000000    0.00000000
     atom   10 type  1   force =     0.00000000    0.00000000    0.00000000
     atom   11 type  1   force =     0.00000000    0.00000000    0.00000000
     atom   12 type  1   force =     0.00000000    0.00000000    0.00000000
     atom   13 type  1   force =     0.00000000    0.00000000    0.00000000
     atom   14 type  1   force =     0.00000000    0.00000000    0.00000000
     atom   15 type  1   force =     0.00000000    0.00000000    0.00000000
     atom   16 type  1   force =     0.00000000    0.00000000    0.00000000
     atom   17 type  1   force =     0.00000000    0.00000000    0.00000000
     atom   18 type  1   force =     0.00000000    0.00000000    0.00000000
     atom   19 type  1   force =     0.00000000    0.00000000    0.00000000
     atom   20 type  1   force =     0.00000000    0.00000000    0.00000000
     atom   21 type  1   force =     0.00000000    0.00000000    0.00000000
     atom   22 type  1   force =     0.00000000    0.00000000    0.00000000
     atom   23 type  1   force =     0.00000000    0.00000000    0.00000000
     atom   24 type  1   force =     0.00000000    0.00000000    0.00000000
     atom   25 type  1   force =     0.00000000    0.00000000    0.00000000
     atom   26 type  1   force =     0.00000000    0.00000000    0.00000000
     atom   27 type  1   force =     0.00000000    0.00000000    0.00000000
     atom   28 type  1   force =     0.00000000    0.00000000    0.00000000
     atom   29 type  1   force =     0.00000000    0.00000000    0.00000000
     atom   30 type  1   force =     0.00000000    0.00000000    0.00000000
     atom   31 type  1   force =     0.00000000    0.00000000    0.00000000
     atom   32 type  1   force =     0.00000000    0.00000000    0.00000000
     atom   33 type  3   force =     0.00000000    0.00000000    0.00000000
     atom   34 type  3   force =     0.00000000    0.00000000    0.00000000
     atom   35 type  3   force =     0.00000000    0.00000000    0.00000000
     atom   36 type  3   force =     0.00000000    0.00000000    0.00000000
     The Hubbard contrib.    to forces
     atom    1 type  2   force =     0.00000000    0.00000000    0.00000000
     atom    2 type  2   force =     0.00000000    0.00000000    0.00000000
     atom    3 type  2   force =     0.00000000    0.00000000    0.00000000
     atom    4 type  2   force =     0.00000000    0.00000000    0.00000000
     atom    5 type  2   force =     0.00000000    0.00000000    0.00000000
     atom    6 type  2   force =     0.00000000    0.00000000    0.00000000
     atom    7 type  2   force =     0.00000000    0.00000000    0.00000000
     atom    8 type  2   force =     0.00000000    0.00000000    0.00000000
     atom    9 type  1   force =     0.00000000    0.00000000    0.00000000
     atom   10 type  1   force =     0.00000000    0.00000000    0.00000000
     atom   11 type  1   force =     0.00000000    0.00000000    0.00000000
     atom   12 type  1   force =     0.00000000    0.00000000    0.00000000
     atom   13 type  1   force =     0.00000000    0.00000000    0.00000000
     atom   14 type  1   force =     0.00000000    0.00000000    0.00000000
     atom   15 type  1   force =     0.00000000    0.00000000    0.00000000
     atom   16 type  1   force =     0.00000000    0.00000000    0.00000000
     atom   17 type  1   force =     0.00000000    0.00000000    0.00000000
     atom   18 type  1   force =     0.00000000    0.00000000    0.00000000
     atom   19 type  1   force =     0.00000000    0.00000000    0.00000000
     atom   20 type  1   force =     0.00000000    0.00000000    0.00000000
     atom   21 type  1   force =     0.00000000    0.00000000    0.00000000
     atom   22 type  1   force =     0.00000000    0.00000000    0.00000000
     atom   23 type  1   force =     0.00000000    0.00000000    0.00000000
     atom   24 type  1   force =     0.00000000    0.00000000    0.00000000
     atom   25 type  1   force =     0.00000000    0.00000000    0.00000000
     atom   26 type  1   force =     0.00000000    0.00000000    0.00000000
     atom   27 type  1   force =     0.00000000    0.00000000    0.00000000
     atom   28 type  1   force =     0.00000000    0.00000000    0.00000000
     atom   29 type  1   force =     0.00000000    0.00000000    0.00000000
     atom   30 type  1   force =     0.00000000    0.00000000    0.00000000
     atom   31 type  1   force =     0.00000000    0.00000000    0.00000000
     atom   32 type  1   force =     0.00000000    0.00000000    0.00000000
     atom   33 type  3   force =     0.00000000    0.00000000    0.00000000
     atom   34 type  3   force =     0.00000000    0.00000000    0.00000000
     atom   35 type  3   force =     0.00000000    0.00000000    0.00000000
     atom   36 type  3   force =     0.00000000    0.00000000    0.00000000
     The SCF correction term to forces
     atom    1 type  2   force =     0.00000015   -0.00000015    0.00000015
     atom    2 type  2   force =    -0.00000015   -0.00000015    0.00000015
     atom    3 type  2   force =     0.00000015    0.00000015   -0.00000015
     atom    4 type  2   force =    -0.00000015    0.00000015   -0.00000015
     atom    5 type  2   force =    -0.00000015   -0.00000015   -0.00000015
     atom    6 type  2   force =     0.00000015   -0.00000015   -0.00000015
     atom    7 type  2   force =    -0.00000015    0.00000015    0.00000015
     atom    8 type  2   force =     0.00000015    0.00000015    0.00000015
     atom    9 type  1   force =     0.00000000    0.00000000    0.00000422
     atom   10 type  1   force =     0.00000000   -0.00000394    0.00000000
     atom   11 type  1   force =    -0.00000394    0.00000000    0.00000000
     atom   12 type  1   force =     0.00000000   -0.00000000   -0.00000422
     atom   13 type  1   force =     0.00000000    0.00000422    0.00000000
     atom   14 type  1   force =     0.00000394   -0.00000000   -0.00000000
     atom   15 type  1   force =     0.00000000    0.00000000    0.00000394
     atom   16 type  1   force =     0.00000000   -0.00000422    0.00000000
     atom   17 type  1   force =    -0.00000394    0.00000000    0.00000000
     atom   18 type  1   force =    -0.00000000    0.00000000   -0.00000394
     atom   19 type  1   force =     0.00000000    0.00000394    0.00000000
     atom   20 type  1   force =     0.00000394   -0.00000000    0.00000000
     atom   21 type  1   force =    -0.00000000    0.00000000    0.00000394
     atom   22 type  1   force =     0.00000000   -0.00000394    0.00000000
     atom   23 type  1   force =    -0.00000422    0.00000000    0.00000000
     atom   24 type  1   force =     0.00000000    0.00000000   -0.00000394
     atom   25 type  1   force =    -0.00000000    0.00000262    0.00000000
     atom   26 type  1   force =     0.00000422    0.00000000    0.00000000
     atom   27 type  1   force =     0.00000000    0.00000000    0.00000262
     atom   28 type  1   force =    -0.00000000   -0.00000262    0.00000000
     atom   29 type  1   force =    -0.00000262    0.00000000    0.00000000
     atom   30 type  1   force =    -0.00000000    0.00000000   -0.00000262
     atom   31 type  1   force =     0.00000000    0.00000394    0.00000000
     atom   32 type  1   force =     0.00000262   -0.00000000   -0.00000000
     atom   33 type  3   force =     0.00000000    0.00000000   -0.00000000
     atom   34 type  3   force =     0.00000000   -0.00000000    0.00000000
     atom   35 type  3   force =    -0.00000000   -0.00000000    0.00000000
     atom   36 type  3   force =    -0.00000000   -0.00000000   -0.00000000

     Total force =     0.017943     Total SCF correction =     0.000018


     Computing stress (Cartesian axis) and pressure

          total   stress  (Ry/bohr**3)                   (kbar)     P=       -2.90
  -0.00001970   0.00000000   0.00000000           -2.90        0.00        0.00
   0.00000000  -0.00001970   0.00000000            0.00       -2.90        0.00
   0.00000000   0.00000000  -0.00001970            0.00        0.00       -2.90

     kinetic stress (kbar)   6460.86      0.00      0.00
                                0.00   6460.86      0.00
                                0.00      0.00   6460.86

     local   stress (kbar)  -4065.01     -0.00      0.00
                               -0.00  -4065.01      0.00
                                0.00      0.00  -4065.01

     nonloc. stress (kbar)   4404.08      0.00      0.00
                                0.00   4404.08      0.00
                                0.00      0.00   4404.08

     hartree stress (kbar)   7254.91      0.00     -0.00
                                0.00   7254.91     -0.00
                               -0.00     -0.00   7254.91

     exc-cor stress (kbar)  -2042.30      0.00      0.00
                                0.00  -2042.30      0.00
                                0.00      0.00  -2042.30

     corecor stress (kbar)   -444.41     -0.00     -0.00
                               -0.00   -444.41     -0.00
                               -0.00     -0.00   -444.41

     ewald   stress (kbar) -11571.03      0.00      0.00
                                0.00 -11571.03      0.00
                                0.00      0.00 -11571.03

     hubbard stress (kbar)      0.00      0.00      0.00
                                0.00      0.00      0.00
                                0.00      0.00      0.00

     DFT-D   stress (kbar)      0.00      0.00      0.00
                                0.00      0.00      0.00
                                0.00      0.00      0.00

     XDM     stress (kbar)      0.00      0.00      0.00
                                0.00      0.00      0.00
                                0.00      0.00      0.00

     dft-nl  stress (kbar)      0.00      0.00      0.00
                                0.00      0.00      0.00
                                0.00      0.00      0.00

     TS-vdW  stress (kbar)      0.00      0.00      0.00
                                0.00      0.00      0.00
                                0.00      0.00      0.00

     MDB     stress (kbar)      0.00      0.00      0.00
                                0.00      0.00      0.00
                                0.00      0.00      0.00

     3D-RISM stress (kbar)      0.00      0.00      0.00
                                0.00      0.00      0.00
                                0.00      0.00      0.00


     Writing all to output data dir ./out/ru-kp-4.save/

     init_run     :      1.98s CPU      2.45s WALL (       1 calls)
     electrons    :     23.95s CPU     30.53s WALL (       1 calls)
     forces       :      0.85s CPU      0.96s WALL (       1 calls)
     stress       :      3.58s CPU      3.73s WALL (       1 calls)

     Called by init_run:
     wfcinit      :      0.61s CPU      0.72s WALL (       1 calls)
     wfcinit:atom :      0.01s CPU      0.01s WALL (       5 calls)
     wfcinit:wfcr :      0.57s CPU      0.67s WALL (       5 calls)
     potinit      :      0.48s CPU      0.64s WALL (       1 calls)
     hinit0       :      0.38s CPU      0.44s WALL (       1 calls)

     Called by electrons:
     c_bands      :     16.43s CPU     19.49s WALL (      14 calls)
     sum_band     :      3.70s CPU      4.67s WALL (      14 calls)
     v_of_rho     :      1.08s CPU      1.30s WALL (      15 calls)
     v_h          :      0.10s CPU      0.13s WALL (      15 calls)
     v_xc         :      1.10s CPU      1.33s WALL (      17 calls)
     newd         :      1.53s CPU      2.01s WALL (      15 calls)
     PAW_pot      :      1.16s CPU      2.98s WALL (      15 calls)
     mix_rho      :      0.16s CPU      0.19s WALL (      14 calls)

     Called by c_bands:
     init_us_2    :      0.26s CPU      0.28s WALL (     155 calls)
     init_us_2:cp :      0.25s CPU      0.28s WALL (     155 calls)
     cegterg      :     15.40s CPU     17.12s WALL (      70 calls)

     Called by sum_band:
     sum_band:wei :      0.00s CPU      0.00s WALL (      14 calls)
     sum_band:loo :      1.84s CPU      2.11s WALL (      14 calls)
     sum_band:buf :      0.04s CPU      0.04s WALL (      70 calls)
     sum_band:ini :      0.10s CPU      0.11s WALL (      70 calls)
     sum_band:cal :      0.31s CPU      0.36s WALL (      70 calls)
     sum_band:bec :      0.01s CPU      0.01s WALL (      70 calls)
     addusdens    :      1.70s CPU      2.30s WALL (      14 calls)
                                        0.00s GPU  (      14 calls)
     addusd:skk   :      0.10s CPU      0.10s WALL (      42 calls)
                                        0.00s GPU  (      42 calls)

     Called by *egterg:
     cdiaghg      :      1.90s CPU      2.03s WALL (     460 calls)
     cegterg:over :      0.77s CPU      0.88s WALL (     390 calls)
     cegterg:upda :      0.48s CPU      0.50s WALL (     390 calls)
     cegterg:last :      0.87s CPU      0.87s WALL (     186 calls)
     h_psi        :     10.58s CPU     12.08s WALL (     465 calls)
     s_psi        :      0.78s CPU      0.80s WALL (     465 calls)
     g_psi        :      0.03s CPU      0.03s WALL (     390 calls)

     Called by h_psi:
     h_psi:calbec :      1.35s CPU      1.62s WALL (     465 calls)
     vloc_psi     :      8.29s CPU      9.46s WALL (     465 calls)
     add_vuspsi   :      0.85s CPU      0.90s WALL (     465 calls)

     General routines
     calbec       :      1.76s CPU      2.11s WALL (     560 calls)
     fft          :      0.83s CPU      1.16s WALL (     218 calls)
     ffts         :      0.16s CPU      0.17s WALL (      29 calls)
     fftw         :      7.67s CPU      8.78s WALL (   31316 calls)
     interpolate  :      0.21s CPU      0.24s WALL (      15 calls)

     Parallel routines

     PAW routines
     PAW_pot      :      1.16s CPU      2.98s WALL (      15 calls)
     PAW_symme    :      0.01s CPU      0.02s WALL (      29 calls)

     PWSCF        :     30.91s CPU     38.93s WALL


   This run was terminated on:  22:38:20  13Jun2025            

=------------------------------------------------------------------------------=
   JOB DONE.
=------------------------------------------------------------------------------=
