
     Program PWSCF v.7.2 starts on 13Jun2025 at 22:43:23 

     This program is part of the open-source Quantum ESPRESSO suite
     for quantum simulation of materials; please cite
         "P. Giannozzi et al., J. Phys.:Condens. Matter 21 395502 (2009);
         "P. Giannozzi et al., J. Phys.:Condens. Matter 29 465901 (2017);
         "P. Giannozzi et al., J. Chem. Phys. 152 154105 (2020);
          URL http://www.quantum-espresso.org", 
     in publications or presentations arising from this work. More details at
     http://www.quantum-espresso.org/quote

     Parallel version (MPI & OpenMP), running on      64 processor cores
     Number of MPI processes:                64
     Threads/MPI process:                     1

     MPI processes distributed on     1 nodes
     214888 MiB available memory on the printing compute node when the environment starts

     Reading input from ru_kp_9.in

     Current dimensions of program PWSCF are:
     Max number of different atomic species (ntypx) = 10
     Max number of k-points (npk) =  40000
     Max angular momentum in pseudopotentials (lmaxx) =  4
     Message from routine read_pp_mesh:
     mismatch in mesh size, discarding the one in header
     file Mg.pbesol-n-kjpaw_psl.0.3.0.UPF: wavefunction(s)  3S renormalized
     Found identity + (  0.0000  0.5000 -0.5000) symmetry
     This is a supercell, fractional translations are disabled
     Message from routine setup:
     using ibrav=0 with symmetry is DISCOURAGED, use correct ibrav instead

     K-points division:     npool     =       2
     R & G space division:  proc/nbgrp/npool/nimage =      32
     Subspace diagonalization in iterative solution of the eigenvalue problem:
     a serial algorithm will be used


     Parallelization info
     --------------------
     sticks:   dense  smooth     PW     G-vecs:    dense   smooth      PW
     Min         416     138     37                36246     6970     979
     Max         417     139     38                36253     6975     986
     Sum       13341    4445   1201              1160031   223135   31439

     Using Slab Decomposition



     bravais-lattice index     =            0
     lattice parameter (alat)  =      12.4630  a.u.
     unit-cell volume          =    1935.8122 (a.u.)^3
     number of atoms/cell      =           36
     number of atomic types    =            3
     number of electrons       =       104.00
     number of Kohn-Sham states=           62
     kinetic-energy cutoff     =      90.0000  Ry
     charge density cutoff     =    1080.0000  Ry
     scf convergence threshold =      7.2E-09
     mixing beta               =       0.4000
     number of iterations used =            8  plain     mixing
     Exchange-correlation= SLA PW PSX PSC
                           (   1   4  10   8   0   0   0)

     celldm(1)=  12.462956  celldm(2)=   0.000000  celldm(3)=   0.000000
     celldm(4)=   0.000000  celldm(5)=   0.000000  celldm(6)=   0.000000

     crystal axes: (cart. coord. in units of alat)
               a(1) = (   1.000000   0.000000   0.000000 )  
               a(2) = (   0.000000   1.000000   0.000000 )  
               a(3) = (   0.000000   0.000000   1.000000 )  

     reciprocal axes: (cart. coord. in units 2 pi/alat)
               b(1) = (  1.000000  0.000000  0.000000 )  
               b(2) = (  0.000000  1.000000  0.000000 )  
               b(3) = (  0.000000  0.000000  1.000000 )  


     PseudoPot. # 1 for H  read from file:
     ./pseudo/H.pbesol-rrkjus_psl.1.0.0.UPF
     MD5 check sum: 0324ed591cc0147dc3d88cad0d33f665
     Pseudo is Ultrasoft, Zval =  1.0
     Generated using "atomic" code by A. Dal Corso  v.6.0 svn rev. 13079
     Using radial grid of  929 points,  2 beta functions with: 
                l(1) =   0
                l(2) =   0
     Q(r) pseudized with 0 coefficients 


     PseudoPot. # 2 for Mg read from file:
     ./pseudo/Mg.pbesol-n-kjpaw_psl.0.3.0.UPF
     MD5 check sum: a6c8d2ff726a5f7005dea00130d82930
     Pseudo is Projector augmented-wave + core cor, Zval =  2.0
     Generated using "atomic" code by A. Dal Corso  v.6.1 svn rev. 13369
     Shape of augmentation charge: PSQ
     Using radial grid of 1129 points,  4 beta functions with: 
                l(1) =   0
                l(2) =   0
                l(3) =   1
                l(4) =   1
     Q(r) pseudized with 0 coefficients 


     PseudoPot. # 3 for Ru read from file:
     ./pseudo/Ru.upf
     MD5 check sum: be3bb57e49b2afd7571f8dd5d9c7d987
     Pseudo is Projector augmented-wave + core cor, Zval = 16.0
     Generated using ATOMPAW code
     Shape of augmentation charge: SINC**2
     Using radial grid of 2342 points,  6 beta functions with: 
                l(1) =   0
                l(2) =   0
                l(3) =   1
                l(4) =   1
                l(5) =   2
                l(6) =   2
     Q(r) pseudized with 0 coefficients 


     atomic species   valence    mass     pseudopotential
        H              1.00     1.00794     H ( 1.00)
        Mg             2.00    24.30500     Mg( 1.00)
        Ru            16.00   101.07000     Ru( 1.00)

     48 Sym. Ops., with inversion, found


                                    s                        frac. trans.

      isym =  1     identity                                     

 cryst.   s( 1) = (     1          0          0      )
                  (     0          1          0      )
                  (     0          0          1      )

 cart.    s( 1) = (  1.0000000  0.0000000  0.0000000 )
                  (  0.0000000  1.0000000  0.0000000 )
                  (  0.0000000  0.0000000  1.0000000 )


      isym =  2     180 deg rotation - cart. axis [0,0,1]        

 cryst.   s( 2) = (    -1          0          0      )
                  (     0         -1          0      )
                  (     0          0          1      )

 cart.    s( 2) = ( -1.0000000  0.0000000  0.0000000 )
                  (  0.0000000 -1.0000000  0.0000000 )
                  (  0.0000000  0.0000000  1.0000000 )


      isym =  3     180 deg rotation - cart. axis [0,1,0]        

 cryst.   s( 3) = (    -1          0          0      )
                  (     0          1          0      )
                  (     0          0         -1      )

 cart.    s( 3) = ( -1.0000000  0.0000000  0.0000000 )
                  (  0.0000000  1.0000000  0.0000000 )
                  (  0.0000000  0.0000000 -1.0000000 )


      isym =  4     180 deg rotation - cart. axis [1,0,0]        

 cryst.   s( 4) = (     1          0          0      )
                  (     0         -1          0      )
                  (     0          0         -1      )

 cart.    s( 4) = (  1.0000000  0.0000000  0.0000000 )
                  (  0.0000000 -1.0000000  0.0000000 )
                  (  0.0000000  0.0000000 -1.0000000 )


      isym =  5     180 deg rotation - cart. axis [1,1,0]        

 cryst.   s( 5) = (     0          1          0      )
                  (     1          0          0      )
                  (     0          0         -1      )

 cart.    s( 5) = (  0.0000000  1.0000000  0.0000000 )
                  (  1.0000000  0.0000000  0.0000000 )
                  (  0.0000000  0.0000000 -1.0000000 )


      isym =  6     180 deg rotation - cart. axis [1,-1,0]       

 cryst.   s( 6) = (     0         -1          0      )
                  (    -1          0          0      )
                  (     0          0         -1      )

 cart.    s( 6) = (  0.0000000 -1.0000000  0.0000000 )
                  ( -1.0000000  0.0000000  0.0000000 )
                  (  0.0000000  0.0000000 -1.0000000 )


      isym =  7      90 deg rotation - cart. axis [0,0,-1]       

 cryst.   s( 7) = (     0         -1          0      )
                  (     1          0          0      )
                  (     0          0          1      )

 cart.    s( 7) = (  0.0000000  1.0000000  0.0000000 )
                  ( -1.0000000  0.0000000  0.0000000 )
                  (  0.0000000  0.0000000  1.0000000 )


      isym =  8      90 deg rotation - cart. axis [0,0,1]        

 cryst.   s( 8) = (     0          1          0      )
                  (    -1          0          0      )
                  (     0          0          1      )

 cart.    s( 8) = (  0.0000000 -1.0000000  0.0000000 )
                  (  1.0000000  0.0000000  0.0000000 )
                  (  0.0000000  0.0000000  1.0000000 )


      isym =  9     180 deg rotation - cart. axis [1,0,1]        

 cryst.   s( 9) = (     0          0          1      )
                  (     0         -1          0      )
                  (     1          0          0      )

 cart.    s( 9) = (  0.0000000  0.0000000  1.0000000 )
                  (  0.0000000 -1.0000000  0.0000000 )
                  (  1.0000000  0.0000000  0.0000000 )


      isym = 10     180 deg rotation - cart. axis [-1,0,1]       

 cryst.   s(10) = (     0          0         -1      )
                  (     0         -1          0      )
                  (    -1          0          0      )

 cart.    s(10) = (  0.0000000  0.0000000 -1.0000000 )
                  (  0.0000000 -1.0000000  0.0000000 )
                  ( -1.0000000  0.0000000  0.0000000 )


      isym = 11      90 deg rotation - cart. axis [0,1,0]        

 cryst.   s(11) = (     0          0         -1      )
                  (     0          1          0      )
                  (     1          0          0      )

 cart.    s(11) = (  0.0000000  0.0000000  1.0000000 )
                  (  0.0000000  1.0000000  0.0000000 )
                  ( -1.0000000  0.0000000  0.0000000 )


      isym = 12      90 deg rotation - cart. axis [0,-1,0]       

 cryst.   s(12) = (     0          0          1      )
                  (     0          1          0      )
                  (    -1          0          0      )

 cart.    s(12) = (  0.0000000  0.0000000 -1.0000000 )
                  (  0.0000000  1.0000000  0.0000000 )
                  (  1.0000000  0.0000000  0.0000000 )


      isym = 13     180 deg rotation - cart. axis [0,1,1]        

 cryst.   s(13) = (    -1          0          0      )
                  (     0          0          1      )
                  (     0          1          0      )

 cart.    s(13) = ( -1.0000000  0.0000000  0.0000000 )
                  (  0.0000000  0.0000000  1.0000000 )
                  (  0.0000000  1.0000000  0.0000000 )


      isym = 14     180 deg rotation - cart. axis [0,1,-1]       

 cryst.   s(14) = (    -1          0          0      )
                  (     0          0         -1      )
                  (     0         -1          0      )

 cart.    s(14) = ( -1.0000000  0.0000000  0.0000000 )
                  (  0.0000000  0.0000000 -1.0000000 )
                  (  0.0000000 -1.0000000  0.0000000 )


      isym = 15      90 deg rotation - cart. axis [-1,0,0]       

 cryst.   s(15) = (     1          0          0      )
                  (     0          0         -1      )
                  (     0          1          0      )

 cart.    s(15) = (  1.0000000  0.0000000  0.0000000 )
                  (  0.0000000  0.0000000  1.0000000 )
                  (  0.0000000 -1.0000000  0.0000000 )


      isym = 16      90 deg rotation - cart. axis [1,0,0]        

 cryst.   s(16) = (     1          0          0      )
                  (     0          0          1      )
                  (     0         -1          0      )

 cart.    s(16) = (  1.0000000  0.0000000  0.0000000 )
                  (  0.0000000  0.0000000 -1.0000000 )
                  (  0.0000000  1.0000000  0.0000000 )


      isym = 17     120 deg rotation - cart. axis [-1,-1,-1]     

 cryst.   s(17) = (     0          0          1      )
                  (     1          0          0      )
                  (     0          1          0      )

 cart.    s(17) = (  0.0000000  1.0000000  0.0000000 )
                  (  0.0000000  0.0000000  1.0000000 )
                  (  1.0000000  0.0000000  0.0000000 )


      isym = 18     120 deg rotation - cart. axis [-1,1,1]       

 cryst.   s(18) = (     0          0         -1      )
                  (    -1          0          0      )
                  (     0          1          0      )

 cart.    s(18) = (  0.0000000 -1.0000000  0.0000000 )
                  (  0.0000000  0.0000000  1.0000000 )
                  ( -1.0000000  0.0000000  0.0000000 )


      isym = 19     120 deg rotation - cart. axis [1,1,-1]       

 cryst.   s(19) = (     0          0         -1      )
                  (     1          0          0      )
                  (     0         -1          0      )

 cart.    s(19) = (  0.0000000  1.0000000  0.0000000 )
                  (  0.0000000  0.0000000 -1.0000000 )
                  ( -1.0000000  0.0000000  0.0000000 )


      isym = 20     120 deg rotation - cart. axis [1,-1,1]       

 cryst.   s(20) = (     0          0          1      )
                  (    -1          0          0      )
                  (     0         -1          0      )

 cart.    s(20) = (  0.0000000 -1.0000000  0.0000000 )
                  (  0.0000000  0.0000000 -1.0000000 )
                  (  1.0000000  0.0000000  0.0000000 )


      isym = 21     120 deg rotation - cart. axis [1,1,1]        

 cryst.   s(21) = (     0          1          0      )
                  (     0          0          1      )
                  (     1          0          0      )

 cart.    s(21) = (  0.0000000  0.0000000  1.0000000 )
                  (  1.0000000  0.0000000  0.0000000 )
                  (  0.0000000  1.0000000  0.0000000 )


      isym = 22     120 deg rotation - cart. axis [-1,1,-1]      

 cryst.   s(22) = (     0         -1          0      )
                  (     0          0         -1      )
                  (     1          0          0      )

 cart.    s(22) = (  0.0000000  0.0000000  1.0000000 )
                  ( -1.0000000  0.0000000  0.0000000 )
                  (  0.0000000 -1.0000000  0.0000000 )


      isym = 23     120 deg rotation - cart. axis [1,-1,-1]      

 cryst.   s(23) = (     0         -1          0      )
                  (     0          0          1      )
                  (    -1          0          0      )

 cart.    s(23) = (  0.0000000  0.0000000 -1.0000000 )
                  ( -1.0000000  0.0000000  0.0000000 )
                  (  0.0000000  1.0000000  0.0000000 )


      isym = 24     120 deg rotation - cart. axis [-1,-1,1]      

 cryst.   s(24) = (     0          1          0      )
                  (     0          0         -1      )
                  (    -1          0          0      )

 cart.    s(24) = (  0.0000000  0.0000000 -1.0000000 )
                  (  1.0000000  0.0000000  0.0000000 )
                  (  0.0000000 -1.0000000  0.0000000 )


      isym = 25     inversion                                    

 cryst.   s(25) = (    -1          0          0      )
                  (     0         -1          0      )
                  (     0          0         -1      )

 cart.    s(25) = ( -1.0000000  0.0000000  0.0000000 )
                  (  0.0000000 -1.0000000  0.0000000 )
                  (  0.0000000  0.0000000 -1.0000000 )


      isym = 26     inv. 180 deg rotation - cart. axis [0,0,1]   

 cryst.   s(26) = (     1          0          0      )
                  (     0          1          0      )
                  (     0          0         -1      )

 cart.    s(26) = (  1.0000000  0.0000000  0.0000000 )
                  (  0.0000000  1.0000000  0.0000000 )
                  (  0.0000000  0.0000000 -1.0000000 )


      isym = 27     inv. 180 deg rotation - cart. axis [0,1,0]   

 cryst.   s(27) = (     1          0          0      )
                  (     0         -1          0      )
                  (     0          0          1      )

 cart.    s(27) = (  1.0000000  0.0000000  0.0000000 )
                  (  0.0000000 -1.0000000  0.0000000 )
                  (  0.0000000  0.0000000  1.0000000 )


      isym = 28     inv. 180 deg rotation - cart. axis [1,0,0]   

 cryst.   s(28) = (    -1          0          0      )
                  (     0          1          0      )
                  (     0          0          1      )

 cart.    s(28) = ( -1.0000000  0.0000000  0.0000000 )
                  (  0.0000000  1.0000000  0.0000000 )
                  (  0.0000000  0.0000000  1.0000000 )


      isym = 29     inv. 180 deg rotation - cart. axis [1,1,0]   

 cryst.   s(29) = (     0         -1          0      )
                  (    -1          0          0      )
                  (     0          0          1      )

 cart.    s(29) = (  0.0000000 -1.0000000  0.0000000 )
                  ( -1.0000000  0.0000000  0.0000000 )
                  (  0.0000000  0.0000000  1.0000000 )


      isym = 30     inv. 180 deg rotation - cart. axis [1,-1,0]  

 cryst.   s(30) = (     0          1          0      )
                  (     1          0          0      )
                  (     0          0          1      )

 cart.    s(30) = (  0.0000000  1.0000000  0.0000000 )
                  (  1.0000000  0.0000000  0.0000000 )
                  (  0.0000000  0.0000000  1.0000000 )


      isym = 31     inv.  90 deg rotation - cart. axis [0,0,-1]  

 cryst.   s(31) = (     0          1          0      )
                  (    -1          0          0      )
                  (     0          0         -1      )

 cart.    s(31) = (  0.0000000 -1.0000000  0.0000000 )
                  (  1.0000000  0.0000000  0.0000000 )
                  (  0.0000000  0.0000000 -1.0000000 )


      isym = 32     inv.  90 deg rotation - cart. axis [0,0,1]   

 cryst.   s(32) = (     0         -1          0      )
                  (     1          0          0      )
                  (     0          0         -1      )

 cart.    s(32) = (  0.0000000  1.0000000  0.0000000 )
                  ( -1.0000000  0.0000000  0.0000000 )
                  (  0.0000000  0.0000000 -1.0000000 )


      isym = 33     inv. 180 deg rotation - cart. axis [1,0,1]   

 cryst.   s(33) = (     0          0         -1      )
                  (     0          1          0      )
                  (    -1          0          0      )

 cart.    s(33) = (  0.0000000  0.0000000 -1.0000000 )
                  (  0.0000000  1.0000000  0.0000000 )
                  ( -1.0000000  0.0000000  0.0000000 )


      isym = 34     inv. 180 deg rotation - cart. axis [-1,0,1]  

 cryst.   s(34) = (     0          0          1      )
                  (     0          1          0      )
                  (     1          0          0      )

 cart.    s(34) = (  0.0000000  0.0000000  1.0000000 )
                  (  0.0000000  1.0000000  0.0000000 )
                  (  1.0000000  0.0000000  0.0000000 )


      isym = 35     inv.  90 deg rotation - cart. axis [0,1,0]   

 cryst.   s(35) = (     0          0          1      )
                  (     0         -1          0      )
                  (    -1          0          0      )

 cart.    s(35) = (  0.0000000  0.0000000 -1.0000000 )
                  (  0.0000000 -1.0000000  0.0000000 )
                  (  1.0000000  0.0000000  0.0000000 )


      isym = 36     inv.  90 deg rotation - cart. axis [0,-1,0]  

 cryst.   s(36) = (     0          0         -1      )
                  (     0         -1          0      )
                  (     1          0          0      )

 cart.    s(36) = (  0.0000000  0.0000000  1.0000000 )
                  (  0.0000000 -1.0000000  0.0000000 )
                  ( -1.0000000  0.0000000  0.0000000 )


      isym = 37     inv. 180 deg rotation - cart. axis [0,1,1]   

 cryst.   s(37) = (     1          0          0      )
                  (     0          0         -1      )
                  (     0         -1          0      )

 cart.    s(37) = (  1.0000000  0.0000000  0.0000000 )
                  (  0.0000000  0.0000000 -1.0000000 )
                  (  0.0000000 -1.0000000  0.0000000 )


      isym = 38     inv. 180 deg rotation - cart. axis [0,1,-1]  

 cryst.   s(38) = (     1          0          0      )
                  (     0          0          1      )
                  (     0          1          0      )

 cart.    s(38) = (  1.0000000  0.0000000  0.0000000 )
                  (  0.0000000  0.0000000  1.0000000 )
                  (  0.0000000  1.0000000  0.0000000 )


      isym = 39     inv.  90 deg rotation - cart. axis [-1,0,0]  

 cryst.   s(39) = (    -1          0          0      )
                  (     0          0          1      )
                  (     0         -1          0      )

 cart.    s(39) = ( -1.0000000  0.0000000  0.0000000 )
                  (  0.0000000  0.0000000 -1.0000000 )
                  (  0.0000000  1.0000000  0.0000000 )


      isym = 40     inv.  90 deg rotation - cart. axis [1,0,0]   

 cryst.   s(40) = (    -1          0          0      )
                  (     0          0         -1      )
                  (     0          1          0      )

 cart.    s(40) = ( -1.0000000  0.0000000  0.0000000 )
                  (  0.0000000  0.0000000  1.0000000 )
                  (  0.0000000 -1.0000000  0.0000000 )


      isym = 41     inv. 120 deg rotation - cart. axis [-1,-1,-1]

 cryst.   s(41) = (     0          0         -1      )
                  (    -1          0          0      )
                  (     0         -1          0      )

 cart.    s(41) = (  0.0000000 -1.0000000  0.0000000 )
                  (  0.0000000  0.0000000 -1.0000000 )
                  ( -1.0000000  0.0000000  0.0000000 )


      isym = 42     inv. 120 deg rotation - cart. axis [-1,1,1]  

 cryst.   s(42) = (     0          0          1      )
                  (     1          0          0      )
                  (     0         -1          0      )

 cart.    s(42) = (  0.0000000  1.0000000  0.0000000 )
                  (  0.0000000  0.0000000 -1.0000000 )
                  (  1.0000000  0.0000000  0.0000000 )


      isym = 43     inv. 120 deg rotation - cart. axis [1,1,-1]  

 cryst.   s(43) = (     0          0          1      )
                  (    -1          0          0      )
                  (     0          1          0      )

 cart.    s(43) = (  0.0000000 -1.0000000  0.0000000 )
                  (  0.0000000  0.0000000  1.0000000 )
                  (  1.0000000  0.0000000  0.0000000 )


      isym = 44     inv. 120 deg rotation - cart. axis [1,-1,1]  

 cryst.   s(44) = (     0          0         -1      )
                  (     1          0          0      )
                  (     0          1          0      )

 cart.    s(44) = (  0.0000000  1.0000000  0.0000000 )
                  (  0.0000000  0.0000000  1.0000000 )
                  ( -1.0000000  0.0000000  0.0000000 )


      isym = 45     inv. 120 deg rotation - cart. axis [1,1,1]   

 cryst.   s(45) = (     0         -1          0      )
                  (     0          0         -1      )
                  (    -1          0          0      )

 cart.    s(45) = (  0.0000000  0.0000000 -1.0000000 )
                  ( -1.0000000  0.0000000  0.0000000 )
                  (  0.0000000 -1.0000000  0.0000000 )


      isym = 46     inv. 120 deg rotation - cart. axis [-1,1,-1] 

 cryst.   s(46) = (     0          1          0      )
                  (     0          0          1      )
                  (    -1          0          0      )

 cart.    s(46) = (  0.0000000  0.0000000 -1.0000000 )
                  (  1.0000000  0.0000000  0.0000000 )
                  (  0.0000000  1.0000000  0.0000000 )


      isym = 47     inv. 120 deg rotation - cart. axis [1,-1,-1] 

 cryst.   s(47) = (     0          1          0      )
                  (     0          0         -1      )
                  (     1          0          0      )

 cart.    s(47) = (  0.0000000  0.0000000  1.0000000 )
                  (  1.0000000  0.0000000  0.0000000 )
                  (  0.0000000 -1.0000000  0.0000000 )


      isym = 48     inv. 120 deg rotation - cart. axis [-1,-1,1] 

 cryst.   s(48) = (     0         -1          0      )
                  (     0          0          1      )
                  (     1          0          0      )

 cart.    s(48) = (  0.0000000  0.0000000  1.0000000 )
                  ( -1.0000000  0.0000000  0.0000000 )
                  (  0.0000000  1.0000000  0.0000000 )


   Cartesian axes

     site n.     atom                  positions (alat units)
         1           Mg  tau(   1) = (   0.2500000   0.7500000   0.2500000  )
         2           Mg  tau(   2) = (   0.7500000   0.7500000   0.2500000  )
         3           Mg  tau(   3) = (   0.2500000   0.2500000   0.7500000  )
         4           Mg  tau(   4) = (   0.7500000   0.2500000   0.7500000  )
         5           Mg  tau(   5) = (   0.7500000   0.7500000   0.7500000  )
         6           Mg  tau(   6) = (   0.2500000   0.7500000   0.7500000  )
         7           Mg  tau(   7) = (   0.7500000   0.2500000   0.2500000  )
         8           Mg  tau(   8) = (   0.2500000   0.2500000   0.2500000  )
         9           H   tau(   9) = (   0.0000000   0.0000000   0.7469588  )
        10           H   tau(  10) = (   0.0000000   0.7530412   0.5000000  )
        11           H   tau(  11) = (   0.7530412   0.0000000   0.5000000  )
        12           H   tau(  12) = (   0.0000000   0.0000000   0.2530412  )
        13           H   tau(  13) = (   0.0000000   0.7469588   0.0000000  )
        14           H   tau(  14) = (   0.2469588   0.0000000   0.5000000  )
        15           H   tau(  15) = (   0.0000000   0.5000000   0.2469588  )
        16           H   tau(  16) = (   0.0000000   0.2530412   0.0000000  )
        17           H   tau(  17) = (   0.7530412   0.5000000   0.0000000  )
        18           H   tau(  18) = (   0.0000000   0.5000000   0.7530412  )
        19           H   tau(  19) = (   0.0000000   0.2469588   0.5000000  )
        20           H   tau(  20) = (   0.2469588   0.5000000   0.0000000  )
        21           H   tau(  21) = (   0.5000000   0.0000000   0.2469588  )
        22           H   tau(  22) = (   0.5000000   0.7530412   0.0000000  )
        23           H   tau(  23) = (   0.2530412   0.0000000   0.0000000  )
        24           H   tau(  24) = (   0.5000000   0.0000000   0.7530412  )
        25           H   tau(  25) = (   0.5000000   0.7469588   0.5000000  )
        26           H   tau(  26) = (   0.7469588   0.0000000   0.0000000  )
        27           H   tau(  27) = (   0.5000000   0.5000000   0.7469588  )
        28           H   tau(  28) = (   0.5000000   0.2530412   0.5000000  )
        29           H   tau(  29) = (   0.2530412   0.5000000   0.5000000  )
        30           H   tau(  30) = (   0.5000000   0.5000000   0.2530412  )
        31           H   tau(  31) = (   0.5000000   0.2469588   0.0000000  )
        32           H   tau(  32) = (   0.7469588   0.5000000   0.5000000  )
        33           Ru  tau(  33) = (   0.0000000   0.0000000   0.0000000  )
        34           Ru  tau(  34) = (   0.0000000   0.5000000   0.5000000  )
        35           Ru  tau(  35) = (   0.5000000   0.0000000   0.5000000  )
        36           Ru  tau(  36) = (   0.5000000   0.5000000   0.0000000  )

   Crystallographic axes

     site n.     atom                  positions (cryst. coord.)
         1           Mg  tau(   1) = (  0.2500000  0.7500000  0.2500000  )
         2           Mg  tau(   2) = (  0.7500000  0.7500000  0.2500000  )
         3           Mg  tau(   3) = (  0.2500000  0.2500000  0.7500000  )
         4           Mg  tau(   4) = (  0.7500000  0.2500000  0.7500000  )
         5           Mg  tau(   5) = (  0.7500000  0.7500000  0.7500000  )
         6           Mg  tau(   6) = (  0.2500000  0.7500000  0.7500000  )
         7           Mg  tau(   7) = (  0.7500000  0.2500000  0.2500000  )
         8           Mg  tau(   8) = (  0.2500000  0.2500000  0.2500000  )
         9           H   tau(   9) = (  0.0000000  0.0000000  0.7469588  )
        10           H   tau(  10) = (  0.0000000  0.7530412  0.5000000  )
        11           H   tau(  11) = (  0.7530412  0.0000000  0.5000000  )
        12           H   tau(  12) = (  0.0000000  0.0000000  0.2530412  )
        13           H   tau(  13) = (  0.0000000  0.7469588  0.0000000  )
        14           H   tau(  14) = (  0.2469588  0.0000000  0.5000000  )
        15           H   tau(  15) = (  0.0000000  0.5000000  0.2469588  )
        16           H   tau(  16) = (  0.0000000  0.2530412  0.0000000  )
        17           H   tau(  17) = (  0.7530412  0.5000000  0.0000000  )
        18           H   tau(  18) = (  0.0000000  0.5000000  0.7530412  )
        19           H   tau(  19) = (  0.0000000  0.2469588  0.5000000  )
        20           H   tau(  20) = (  0.2469588  0.5000000  0.0000000  )
        21           H   tau(  21) = (  0.5000000  0.0000000  0.2469588  )
        22           H   tau(  22) = (  0.5000000  0.7530412  0.0000000  )
        23           H   tau(  23) = (  0.2530412  0.0000000  0.0000000  )
        24           H   tau(  24) = (  0.5000000  0.0000000  0.7530412  )
        25           H   tau(  25) = (  0.5000000  0.7469588  0.5000000  )
        26           H   tau(  26) = (  0.7469588  0.0000000  0.0000000  )
        27           H   tau(  27) = (  0.5000000  0.5000000  0.7469588  )
        28           H   tau(  28) = (  0.5000000  0.2530412  0.5000000  )
        29           H   tau(  29) = (  0.2530412  0.5000000  0.5000000  )
        30           H   tau(  30) = (  0.5000000  0.5000000  0.2530412  )
        31           H   tau(  31) = (  0.5000000  0.2469588  0.0000000  )
        32           H   tau(  32) = (  0.7469588  0.5000000  0.5000000  )
        33           Ru  tau(  33) = (  0.0000000  0.0000000  0.0000000  )
        34           Ru  tau(  34) = (  0.0000000  0.5000000  0.5000000  )
        35           Ru  tau(  35) = (  0.5000000  0.0000000  0.5000000  )
        36           Ru  tau(  36) = (  0.5000000  0.5000000  0.0000000  )

     number of k points=    35  Gaussian smearing, width (Ry)=  0.0200
                       cart. coord. in units 2pi/alat
        k(    1) = (   0.0000000   0.0000000   0.0000000), wk =   0.0027435
        k(    2) = (   0.0000000   0.0000000   0.1111111), wk =   0.0164609
        k(    3) = (   0.0000000   0.0000000   0.2222222), wk =   0.0164609
        k(    4) = (   0.0000000   0.0000000   0.3333333), wk =   0.0164609
        k(    5) = (   0.0000000   0.0000000   0.4444444), wk =   0.0164609
        k(    6) = (   0.0000000   0.1111111   0.1111111), wk =   0.0329218
        k(    7) = (   0.0000000   0.1111111   0.2222222), wk =   0.0658436
        k(    8) = (   0.0000000   0.1111111   0.3333333), wk =   0.0658436
        k(    9) = (   0.0000000   0.1111111   0.4444444), wk =   0.0658436
        k(   10) = (   0.0000000   0.2222222   0.2222222), wk =   0.0329218
        k(   11) = (   0.0000000   0.2222222   0.3333333), wk =   0.0658436
        k(   12) = (   0.0000000   0.2222222   0.4444444), wk =   0.0658436
        k(   13) = (   0.0000000   0.3333333   0.3333333), wk =   0.0329218
        k(   14) = (   0.0000000   0.3333333   0.4444444), wk =   0.0658436
        k(   15) = (   0.0000000   0.4444444   0.4444444), wk =   0.0329218
        k(   16) = (   0.1111111   0.1111111   0.1111111), wk =   0.0219479
        k(   17) = (   0.1111111   0.1111111   0.2222222), wk =   0.0658436
        k(   18) = (   0.1111111   0.1111111   0.3333333), wk =   0.0658436
        k(   19) = (   0.1111111   0.1111111   0.4444444), wk =   0.0658436
        k(   20) = (   0.1111111   0.2222222   0.2222222), wk =   0.0658436
        k(   21) = (   0.1111111   0.2222222   0.3333333), wk =   0.1316872
        k(   22) = (   0.1111111   0.2222222   0.4444444), wk =   0.1316872
        k(   23) = (   0.1111111   0.3333333   0.3333333), wk =   0.0658436
        k(   24) = (   0.1111111   0.3333333   0.4444444), wk =   0.1316872
        k(   25) = (   0.1111111   0.4444444   0.4444444), wk =   0.0658436
        k(   26) = (   0.2222222   0.2222222   0.2222222), wk =   0.0219479
        k(   27) = (   0.2222222   0.2222222   0.3333333), wk =   0.0658436
        k(   28) = (   0.2222222   0.2222222   0.4444444), wk =   0.0658436
        k(   29) = (   0.2222222   0.3333333   0.3333333), wk =   0.0658436
        k(   30) = (   0.2222222   0.3333333   0.4444444), wk =   0.1316872
        k(   31) = (   0.2222222   0.4444444   0.4444444), wk =   0.0658436
        k(   32) = (   0.3333333   0.3333333   0.3333333), wk =   0.0219479
        k(   33) = (   0.3333333   0.3333333   0.4444444), wk =   0.0658436
        k(   34) = (   0.3333333   0.4444444   0.4444444), wk =   0.0658436
        k(   35) = (   0.4444444   0.4444444   0.4444444), wk =   0.0219479

                       cryst. coord.
        k(    1) = (   0.0000000   0.0000000   0.0000000), wk =   0.0027435
        k(    2) = (   0.0000000   0.0000000   0.1111111), wk =   0.0164609
        k(    3) = (   0.0000000   0.0000000   0.2222222), wk =   0.0164609
        k(    4) = (   0.0000000   0.0000000   0.3333333), wk =   0.0164609
        k(    5) = (   0.0000000   0.0000000   0.4444444), wk =   0.0164609
        k(    6) = (   0.0000000   0.1111111   0.1111111), wk =   0.0329218
        k(    7) = (   0.0000000   0.1111111   0.2222222), wk =   0.0658436
        k(    8) = (   0.0000000   0.1111111   0.3333333), wk =   0.0658436
        k(    9) = (   0.0000000   0.1111111   0.4444444), wk =   0.0658436
        k(   10) = (   0.0000000   0.2222222   0.2222222), wk =   0.0329218
        k(   11) = (   0.0000000   0.2222222   0.3333333), wk =   0.0658436
        k(   12) = (   0.0000000   0.2222222   0.4444444), wk =   0.0658436
        k(   13) = (   0.0000000   0.3333333   0.3333333), wk =   0.0329218
        k(   14) = (   0.0000000   0.3333333   0.4444444), wk =   0.0658436
        k(   15) = (   0.0000000   0.4444444   0.4444444), wk =   0.0329218
        k(   16) = (   0.1111111   0.1111111   0.1111111), wk =   0.0219479
        k(   17) = (   0.1111111   0.1111111   0.2222222), wk =   0.0658436
        k(   18) = (   0.1111111   0.1111111   0.3333333), wk =   0.0658436
        k(   19) = (   0.1111111   0.1111111   0.4444444), wk =   0.0658436
        k(   20) = (   0.1111111   0.2222222   0.2222222), wk =   0.0658436
        k(   21) = (   0.1111111   0.2222222   0.3333333), wk =   0.1316872
        k(   22) = (   0.1111111   0.2222222   0.4444444), wk =   0.1316872
        k(   23) = (   0.1111111   0.3333333   0.3333333), wk =   0.0658436
        k(   24) = (   0.1111111   0.3333333   0.4444444), wk =   0.1316872
        k(   25) = (   0.1111111   0.4444444   0.4444444), wk =   0.0658436
        k(   26) = (   0.2222222   0.2222222   0.2222222), wk =   0.0219479
        k(   27) = (   0.2222222   0.2222222   0.3333333), wk =   0.0658436
        k(   28) = (   0.2222222   0.2222222   0.4444444), wk =   0.0658436
        k(   29) = (   0.2222222   0.3333333   0.3333333), wk =   0.0658436
        k(   30) = (   0.2222222   0.3333333   0.4444444), wk =   0.1316872
        k(   31) = (   0.2222222   0.4444444   0.4444444), wk =   0.0658436
        k(   32) = (   0.3333333   0.3333333   0.3333333), wk =   0.0219479
        k(   33) = (   0.3333333   0.3333333   0.4444444), wk =   0.0658436
        k(   34) = (   0.3333333   0.4444444   0.4444444), wk =   0.0658436
        k(   35) = (   0.4444444   0.4444444   0.4444444), wk =   0.0219479

     Dense  grid:  1160031 G-vectors     FFT dimensions: ( 135, 135, 135)

     Smooth grid:   223135 G-vectors     FFT dimensions: (  75,  75,  75)

     Dynamical RAM for                 wfc:       0.82 MB

     Dynamical RAM for     wfc (w. buffer):      15.67 MB

     Dynamical RAM for           str. fact:       1.66 MB

     Dynamical RAM for           local pot:       0.00 MB

     Dynamical RAM for          nlocal pot:       2.45 MB

     Dynamical RAM for                qrad:       7.91 MB

     Dynamical RAM for          rho,v,vnew:       3.75 MB

     Dynamical RAM for               rhoin:       1.25 MB

     Dynamical RAM for            rho*nmix:       8.85 MB

     Dynamical RAM for           G-vectors:       2.13 MB

     Dynamical RAM for          h,s,v(r/c):       0.70 MB

     Dynamical RAM for          <psi|beta>:       0.17 MB

     Dynamical RAM for                 psi:       1.65 MB

     Dynamical RAM for                hpsi:       1.65 MB

     Dynamical RAM for                spsi:       1.65 MB

     Dynamical RAM for      wfcinit/wfcrot:       3.78 MB

     Dynamical RAM for           addusdens:      58.36 MB

     Dynamical RAM for          addusforce:      71.18 MB

     Dynamical RAM for         addusstress:      55.73 MB

     Estimated static dynamical RAM per process >      40.50 MB

     Estimated max dynamical RAM per process >     120.52 MB

     Estimated total dynamical RAM >       7.26 GB

     Initial potential from superposition of free atoms

     starting charge     103.9896, renormalised to     104.0000
     Starting wfcs are  128 randomized atomic wfcs
     Checking if some PAW data can be deallocated... 
       PAW data deallocated on   48 nodes for type:  2
       PAW data deallocated on   60 nodes for type:  3

     total cpu time spent up to now is        4.8 secs

     Self-consistent Calculation

     iteration #  1     ecut=    90.00 Ry     beta= 0.40
     Davidson diagonalization with overlap

---- Real-time Memory Report at c_bands before calling an iterative solver
           136 MiB given to the printing process from OS
             0 MiB allocation reported by mallinfo(arena+hblkhd)
        210624 MiB available memory on the node where the printing process lives
------------------
     ethr =  1.00E-02,  avg # of iterations =  2.3

     total cpu time spent up to now is        9.3 secs

     total energy              =   -1998.57589636 Ry
     estimated scf accuracy    <       1.37460275 Ry

     iteration #  2     ecut=    90.00 Ry     beta= 0.40
     Davidson diagonalization with overlap

---- Real-time Memory Report at c_bands before calling an iterative solver
           169 MiB given to the printing process from OS
             0 MiB allocation reported by mallinfo(arena+hblkhd)
        216047 MiB available memory on the node where the printing process lives
------------------
     ethr =  1.32E-03,  avg # of iterations =  2.0

     total cpu time spent up to now is       13.5 secs

     total energy              =   -1998.50715145 Ry
     estimated scf accuracy    <       0.33528412 Ry

     iteration #  3     ecut=    90.00 Ry     beta= 0.40
     Davidson diagonalization with overlap

---- Real-time Memory Report at c_bands before calling an iterative solver
           172 MiB given to the printing process from OS
             0 MiB allocation reported by mallinfo(arena+hblkhd)
        212917 MiB available memory on the node where the printing process lives
------------------
     ethr =  3.22E-04,  avg # of iterations =  2.8

     total cpu time spent up to now is       18.3 secs

     total energy              =   -1998.56764231 Ry
     estimated scf accuracy    <       0.00442890 Ry

     iteration #  4     ecut=    90.00 Ry     beta= 0.40
     Davidson diagonalization with overlap

---- Real-time Memory Report at c_bands before calling an iterative solver
           173 MiB given to the printing process from OS
             0 MiB allocation reported by mallinfo(arena+hblkhd)
        213809 MiB available memory on the node where the printing process lives
------------------
     c_bands:  2 eigenvalues not converged
     c_bands:  2 eigenvalues not converged
     c_bands:  2 eigenvalues not converged
     c_bands:  1 eigenvalues not converged
     c_bands:  1 eigenvalues not converged
     c_bands:  1 eigenvalues not converged
     c_bands:  2 eigenvalues not converged
     c_bands:  2 eigenvalues not converged
     c_bands:  2 eigenvalues not converged
     ethr =  4.26E-06,  avg # of iterations = 16.4

     total cpu time spent up to now is       30.2 secs

     total energy              =   -1998.57456941 Ry
     estimated scf accuracy    <       0.00289728 Ry

     iteration #  5     ecut=    90.00 Ry     beta= 0.40
     Davidson diagonalization with overlap

---- Real-time Memory Report at c_bands before calling an iterative solver
           174 MiB given to the printing process from OS
             0 MiB allocation reported by mallinfo(arena+hblkhd)
        209618 MiB available memory on the node where the printing process lives
------------------
     c_bands:  1 eigenvalues not converged
     c_bands:  1 eigenvalues not converged
     ethr =  2.79E-06,  avg # of iterations =  8.3

     total cpu time spent up to now is       36.2 secs

     total energy              =   -1998.57486477 Ry
     estimated scf accuracy    <       0.00074448 Ry

     iteration #  6     ecut=    90.00 Ry     beta= 0.40
     Davidson diagonalization with overlap

---- Real-time Memory Report at c_bands before calling an iterative solver
           174 MiB given to the printing process from OS
             0 MiB allocation reported by mallinfo(arena+hblkhd)
        212796 MiB available memory on the node where the printing process lives
------------------
     ethr =  7.16E-07,  avg # of iterations =  8.1

     total cpu time spent up to now is       42.9 secs

     total energy              =   -1998.57497732 Ry
     estimated scf accuracy    <       0.00071528 Ry

     iteration #  7     ecut=    90.00 Ry     beta= 0.40
     Davidson diagonalization with overlap

---- Real-time Memory Report at c_bands before calling an iterative solver
           175 MiB given to the printing process from OS
             0 MiB allocation reported by mallinfo(arena+hblkhd)
        212868 MiB available memory on the node where the printing process lives
------------------
     ethr =  6.88E-07,  avg # of iterations =  2.0

     total cpu time spent up to now is       47.1 secs

     total energy              =   -1998.57503516 Ry
     estimated scf accuracy    <       0.00002938 Ry

     iteration #  8     ecut=    90.00 Ry     beta= 0.40
     Davidson diagonalization with overlap

---- Real-time Memory Report at c_bands before calling an iterative solver
           176 MiB given to the printing process from OS
             0 MiB allocation reported by mallinfo(arena+hblkhd)
        213758 MiB available memory on the node where the printing process lives
------------------
     c_bands:  1 eigenvalues not converged
     ethr =  2.82E-08,  avg # of iterations = 10.8

     total cpu time spent up to now is       57.1 secs

     total energy              =   -1998.57508107 Ry
     estimated scf accuracy    <       0.00001818 Ry

     iteration #  9     ecut=    90.00 Ry     beta= 0.40
     Davidson diagonalization with overlap

---- Real-time Memory Report at c_bands before calling an iterative solver
           176 MiB given to the printing process from OS
             0 MiB allocation reported by mallinfo(arena+hblkhd)
        209546 MiB available memory on the node where the printing process lives
------------------
     c_bands:  1 eigenvalues not converged
     c_bands:  1 eigenvalues not converged
     ethr =  1.75E-08,  avg # of iterations =  5.0

     total cpu time spent up to now is       62.4 secs

     total energy              =   -1998.57508369 Ry
     estimated scf accuracy    <       0.00000646 Ry

     iteration # 10     ecut=    90.00 Ry     beta= 0.40
     Davidson diagonalization with overlap

---- Real-time Memory Report at c_bands before calling an iterative solver
           177 MiB given to the printing process from OS
             0 MiB allocation reported by mallinfo(arena+hblkhd)
        212717 MiB available memory on the node where the printing process lives
------------------
     ethr =  6.21E-09,  avg # of iterations =  1.9

     total cpu time spent up to now is       66.3 secs

     total energy              =   -1998.57508291 Ry
     estimated scf accuracy    <       0.00000344 Ry

     iteration # 11     ecut=    90.00 Ry     beta= 0.40
     Davidson diagonalization with overlap

---- Real-time Memory Report at c_bands before calling an iterative solver
           177 MiB given to the printing process from OS
             0 MiB allocation reported by mallinfo(arena+hblkhd)
        212709 MiB available memory on the node where the printing process lives
------------------
     ethr =  3.31E-09,  avg # of iterations =  4.9

     total cpu time spent up to now is       71.8 secs

     total energy              =   -1998.57508357 Ry
     estimated scf accuracy    <       0.00000060 Ry

     iteration # 12     ecut=    90.00 Ry     beta= 0.40
     Davidson diagonalization with overlap

---- Real-time Memory Report at c_bands before calling an iterative solver
           177 MiB given to the printing process from OS
             0 MiB allocation reported by mallinfo(arena+hblkhd)
        211954 MiB available memory on the node where the printing process lives
------------------
     ethr =  5.73E-10,  avg # of iterations =  7.9

     total cpu time spent up to now is       79.0 secs

     total energy              =   -1998.57508381 Ry
     estimated scf accuracy    <       0.00000015 Ry

     iteration # 13     ecut=    90.00 Ry     beta= 0.40
     Davidson diagonalization with overlap

---- Real-time Memory Report at c_bands before calling an iterative solver
           178 MiB given to the printing process from OS
             0 MiB allocation reported by mallinfo(arena+hblkhd)
        213704 MiB available memory on the node where the printing process lives
------------------
     ethr =  1.40E-10,  avg # of iterations =  6.7

     total cpu time spent up to now is       86.5 secs

     total energy              =   -1998.57508384 Ry
     estimated scf accuracy    <       0.00000025 Ry

     iteration # 14     ecut=    90.00 Ry     beta= 0.40
     Davidson diagonalization with overlap

---- Real-time Memory Report at c_bands before calling an iterative solver
           178 MiB given to the printing process from OS
             0 MiB allocation reported by mallinfo(arena+hblkhd)
        209501 MiB available memory on the node where the printing process lives
------------------
     ethr =  1.40E-10,  avg # of iterations =  4.0

     total cpu time spent up to now is       92.3 secs

     total energy              =   -1998.57508391 Ry
     estimated scf accuracy    <       0.00000007 Ry

     iteration # 15     ecut=    90.00 Ry     beta= 0.40
     Davidson diagonalization with overlap

---- Real-time Memory Report at c_bands before calling an iterative solver
           178 MiB given to the printing process from OS
             0 MiB allocation reported by mallinfo(arena+hblkhd)
        212688 MiB available memory on the node where the printing process lives
------------------
     ethr =  6.33E-11,  avg # of iterations =  2.2

     total cpu time spent up to now is       96.4 secs

     End of self-consistent calculation

          k = 0.0000 0.0000 0.0000 ( 28017 PWs)   bands (ev):

   -65.0572 -65.0571 -65.0571 -65.0571 -35.1697 -35.1697 -35.1697 -35.1686
   -35.1686 -35.1686 -35.1686 -35.1686 -35.1686 -35.1680 -35.1680 -35.1680
    -2.7095  -0.6224  -0.6224  -0.6224   1.3510   1.3510   1.3510   1.6063
     1.6063   1.6063   1.8615   1.8615   2.1996   2.1996   2.1996   3.1008
     3.1008   3.1008   3.1008   3.1008   3.1008   3.8346   3.8346   3.8346
     4.4567   4.4567   4.4567   4.5117   4.5117   4.5117   5.4552   5.4552
     5.4552   5.4552   5.4552   5.4552   8.4623   8.4623   8.4623  10.7790
    10.7790  10.7790  12.2784  12.2907  12.2907  12.2907

     occupation numbers 
     1.0000   1.0000   1.0000   1.0000   1.0000   1.0000   1.0000   1.0000
     1.0000   1.0000   1.0000   1.0000   1.0000   1.0000   1.0000   1.0000
     1.0000   1.0000   1.0000   1.0000   1.0000   1.0000   1.0000   1.0000
     1.0000   1.0000   1.0000   1.0000   1.0000   1.0000   1.0000   1.0000
     1.0000   1.0000   1.0000   1.0000   1.0000   1.0000   1.0000   1.0000
     1.0000   1.0000   1.0000   1.0000   1.0000   1.0000   1.0000   1.0000
     1.0000   1.0000   1.0000   1.0000   0.0000   0.0000   0.0000   0.0000
     0.0000   0.0000   0.0000   0.0000   0.0000   0.0000

          k = 0.0000 0.0000 0.1111 ( 27937 PWs)   bands (ev):

   -65.0572 -65.0571 -65.0571 -65.0571 -35.1696 -35.1696 -35.1696 -35.1686
   -35.1686 -35.1686 -35.1686 -35.1686 -35.1686 -35.1680 -35.1680 -35.1680
    -2.6669  -0.7141  -0.5826  -0.5826   1.0710   1.3791   1.3791   1.5025
     1.5025   1.8083   1.8711   2.0414   2.1167   2.1167   2.1888   2.9328
     2.9328   3.1190   3.1190   3.2543   3.2543   3.8530   4.0084   4.0084
     4.2264   4.2264   4.4528   4.4889   4.7364   4.7364   5.4397   5.4397
     5.4545   5.4545   5.4552   5.4552   8.4620   8.5552   8.5552  10.7897
    10.8018  10.8018  11.8716  11.9439  12.2489  12.2490

     occupation numbers 
     1.0000   1.0000   1.0000   1.0000   1.0000   1.0000   1.0000   1.0000
     1.0000   1.0000   1.0000   1.0000   1.0000   1.0000   1.0000   1.0000
     1.0000   1.0000   1.0000   1.0000   1.0000   1.0000   1.0000   1.0000
     1.0000   1.0000   1.0000   1.0000   1.0000   1.0000   1.0000   1.0000
     1.0000   1.0000   1.0000   1.0000   1.0000   1.0000   1.0000   1.0000
     1.0000   1.0000   1.0000   1.0000   1.0000   1.0000   1.0000   1.0000
     1.0000   1.0000   1.0000   1.0000   0.0000   0.0000   0.0000   0.0000
     0.0000   0.0000   0.0000   0.0000   0.0000   0.0000

          k = 0.0000 0.0000 0.2222 ( 27898 PWs)   bands (ev):

   -65.0572 -65.0571 -65.0571 -65.0571 -35.1695 -35.1695 -35.1695 -35.1687
   -35.1687 -35.1686 -35.1686 -35.1685 -35.1685 -35.1682 -35.1681 -35.1681
    -2.5402  -0.9743  -0.4658  -0.4658   0.9031   1.2090   1.2090   1.4630
     1.4630   1.6630   1.8989   2.0311   2.0311   2.1579   2.6256   2.6256
     2.6466   3.1738   3.1738   3.5311   3.5311   3.9065   3.9804   3.9804
     4.3290   4.3290   4.4242   4.4252   4.9636   4.9636   5.3895   5.3895
     5.4489   5.4489   5.4553   5.4553   8.4827   8.8321   8.8321  10.8230
    10.8801  10.8801  10.9293  11.5451  12.5682  12.5689

     occupation numbers 
     1.0000   1.0000   1.0000   1.0000   1.0000   1.0000   1.0000   1.0000
     1.0000   1.0000   1.0000   1.0000   1.0000   1.0000   1.0000   1.0000
     1.0000   1.0000   1.0000   1.0000   1.0000   1.0000   1.0000   1.0000
     1.0000   1.0000   1.0000   1.0000   1.0000   1.0000   1.0000   1.0000
     1.0000   1.0000   1.0000   1.0000   1.0000   1.0000   1.0000   1.0000
     1.0000   1.0000   1.0000   1.0000   1.0000   1.0000   1.0000   1.0000
     1.0000   1.0000   1.0000   1.0000   0.0000   0.0000   0.0000   0.0000
     0.0000   0.0000   0.0000   0.0000   0.0000   0.0000

          k = 0.0000 0.0000 0.3333 ( 27914 PWs)   bands (ev):

   -65.0572 -65.0572 -65.0571 -65.0571 -35.1694 -35.1694 -35.1693 -35.1689
   -35.1689 -35.1686 -35.1686 -35.1684 -35.1684 -35.1684 -35.1681 -35.1681
    -2.3328  -1.3340  -0.2825  -0.2825   0.8423   0.8423   0.9167   1.4608
     1.6016   1.6016   1.9422   1.9981   1.9981   2.1111   2.3142   2.3142
     3.2441   3.2653   3.2653   3.7547   3.7547   3.7604   3.7605   3.9904
     4.3277   4.3323   4.6509   4.6509   5.1523   5.1523   5.2952   5.2952
     5.4291   5.4291   5.4554   5.4554   8.5830   9.2740   9.2740  10.0275
    10.8827  11.0378  11.0378  11.2949  12.1231  12.1231

     occupation numbers 
     1.0000   1.0000   1.0000   1.0000   1.0000   1.0000   1.0000   1.0000
     1.0000   1.0000   1.0000   1.0000   1.0000   1.0000   1.0000   1.0000
     1.0000   1.0000   1.0000   1.0000   1.0000   1.0000   1.0000   1.0000
     1.0000   1.0000   1.0000   1.0000   1.0000   1.0000   1.0000   1.0000
     1.0000   1.0000   1.0000   1.0000   1.0000   1.0000   1.0000   1.0000
     1.0000   1.0000   1.0000   1.0000   1.0000   1.0000   1.0000   1.0000
     1.0000   1.0000   1.0000   1.0000   0.0000   0.0000   0.0000   0.0000
     0.0000   0.0000   0.0000   0.0000   0.0000   0.0000

          k = 0.0000 0.0000 0.4444 ( 27870 PWs)   bands (ev):

   -65.0572 -65.0572 -65.0571 -65.0571 -35.1692 -35.1692 -35.1690 -35.1690
   -35.1690 -35.1687 -35.1686 -35.1686 -35.1683 -35.1683 -35.1682 -35.1682
    -2.0518  -1.7102  -0.0796  -0.0796   0.5329   0.5329   1.0474   1.2424
     1.7926   1.7926   1.9875   1.9875   1.9962   2.0323   2.0323   2.0548
     3.3935   3.3935   3.5575   3.5575   3.7549   3.8837   3.8837   4.0964
     4.1211   4.2135   4.9289   4.9289   5.1444   5.1444   5.2918   5.2918
     5.3812   5.3812   5.4555   5.4555   8.8399   9.3170   9.7652   9.7652
    10.9752  11.1089  11.2679  11.2679  11.2990  11.2990

     occupation numbers 
     1.0000   1.0000   1.0000   1.0000   1.0000   1.0000   1.0000   1.0000
     1.0000   1.0000   1.0000   1.0000   1.0000   1.0000   1.0000   1.0000
     1.0000   1.0000   1.0000   1.0000   1.0000   1.0000   1.0000   1.0000
     1.0000   1.0000   1.0000   1.0000   1.0000   1.0000   1.0000   1.0000
     1.0000   1.0000   1.0000   1.0000   1.0000   1.0000   1.0000   1.0000
     1.0000   1.0000   1.0000   1.0000   1.0000   1.0000   1.0000   1.0000
     1.0000   1.0000   1.0000   1.0000   0.0000   0.0000   0.0000   0.0000
     0.0000   0.0000   0.0000   0.0000   0.0000   0.0000

          k = 0.0000 0.1111 0.1111 ( 27911 PWs)   bands (ev):

   -65.0572 -65.0571 -65.0571 -65.0571 -35.1696 -35.1696 -35.1696 -35.1687
   -35.1686 -35.1686 -35.1686 -35.1686 -35.1686 -35.1681 -35.1680 -35.1680
    -2.6244  -0.6735  -0.6735  -0.5430   1.0615   1.0615   1.3995   1.4071
     1.7906   1.8460   1.9255   1.9255   2.0211   2.1421   2.1421   2.8897
     2.9527   2.9527   3.2848   3.2848   3.3594   4.0246   4.0246   4.0453
     4.0827   4.1215   4.5411   4.5831   4.7815   4.8011   5.4293   5.4398
     5.4398   5.4509   5.4543   5.4543   8.5526   8.5526   8.6371  10.8122
    10.8122  10.8290  11.7079  11.8965  11.9101  12.3002

     occupation numbers 
     1.0000   1.0000   1.0000   1.0000   1.0000   1.0000   1.0000   1.0000
     1.0000   1.0000   1.0000   1.0000   1.0000   1.0000   1.0000   1.0000
     1.0000   1.0000   1.0000   1.0000   1.0000   1.0000   1.0000   1.0000
     1.0000   1.0000   1.0000   1.0000   1.0000   1.0000   1.0000   1.0000
     1.0000   1.0000   1.0000   1.0000   1.0000   1.0000   1.0000   1.0000
     1.0000   1.0000   1.0000   1.0000   1.0000   1.0000   1.0000   1.0000
     1.0000   1.0000   1.0000   1.0000   0.0000   0.0000   0.0000   0.0000
     0.0000   0.0000   0.0000   0.0000   0.0000   0.0000

          k = 0.0000 0.1111 0.2222 ( 27924 PWs)   bands (ev):

   -65.0572 -65.0571 -65.0571 -65.0571 -35.1695 -35.1695 -35.1695 -35.1688
   -35.1687 -35.1686 -35.1686 -35.1685 -35.1685 -35.1683 -35.1681 -35.1680
    -2.4978  -0.9326  -0.5532  -0.4263   0.8954   0.9873   1.1050   1.4907
     1.6627   1.6824   1.8569   1.9015   2.0499   2.1441   2.5303   2.6477
     2.7109   3.0124   3.3972   3.5768   3.6224   3.7984   3.8514   4.0718
     4.3415   4.3735   4.5199   4.6158   4.9606   4.9739   5.3831   5.3919
     5.4369   5.4480   5.4491   5.4537   8.5667   8.8221   8.8811  10.8445
    10.8899  10.9214  10.9479  11.4692  11.8833  12.4646

     occupation numbers 
     1.0000   1.0000   1.0000   1.0000   1.0000   1.0000   1.0000   1.0000
     1.0000   1.0000   1.0000   1.0000   1.0000   1.0000   1.0000   1.0000
     1.0000   1.0000   1.0000   1.0000   1.0000   1.0000   1.0000   1.0000
     1.0000   1.0000   1.0000   1.0000   1.0000   1.0000   1.0000   1.0000
     1.0000   1.0000   1.0000   1.0000   1.0000   1.0000   1.0000   1.0000
     1.0000   1.0000   1.0000   1.0000   1.0000   1.0000   1.0000   1.0000
     1.0000   1.0000   1.0000   1.0000   0.0000   0.0000   0.0000   0.0000
     0.0000   0.0000   0.0000   0.0000   0.0000   0.0000

          k = 0.0000 0.1111 0.3333 ( 27926 PWs)   bands (ev):

   -65.0572 -65.0572 -65.0571 -65.0571 -35.1694 -35.1694 -35.1693 -35.1689
   -35.1688 -35.1686 -35.1685 -35.1685 -35.1685 -35.1684 -35.1682 -35.1681
    -2.2906  -1.2921  -0.3605  -0.2435   0.7320   0.7614   0.9133   1.4645
     1.5905   1.6287   1.8154   1.8918   2.0238   2.1764   2.3381   2.5082
     2.9346   3.1112   3.5729   3.6243   3.6555   3.8180   3.8488   4.1459
     4.4425   4.5366   4.6595   4.6645   5.1505   5.1519   5.2919   5.3001
     5.4212   5.4270   5.4494   5.4527   8.6563   9.2484   9.2688  10.0612
    10.9013  11.0467  11.1048  11.2661  11.7748  12.1154

     occupation numbers 
     1.0000   1.0000   1.0000   1.0000   1.0000   1.0000   1.0000   1.0000
     1.0000   1.0000   1.0000   1.0000   1.0000   1.0000   1.0000   1.0000
     1.0000   1.0000   1.0000   1.0000   1.0000   1.0000   1.0000   1.0000
     1.0000   1.0000   1.0000   1.0000   1.0000   1.0000   1.0000   1.0000
     1.0000   1.0000   1.0000   1.0000   1.0000   1.0000   1.0000   1.0000
     1.0000   1.0000   1.0000   1.0000   1.0000   1.0000   1.0000   1.0000
     1.0000   1.0000   1.0000   1.0000   0.0000   0.0000   0.0000   0.0000
     0.0000   0.0000   0.0000   0.0000   0.0000   0.0000

          k = 0.0000 0.1111 0.4444 ( 27901 PWs)   bands (ev):

   -65.0572 -65.0572 -65.0571 -65.0571 -35.1692 -35.1692 -35.1691 -35.1690
   -35.1690 -35.1687 -35.1686 -35.1685 -35.1684 -35.1683 -35.1683 -35.1682
    -2.0097  -1.6683  -0.1247  -0.0498   0.4205   0.4737   1.0481   1.2459
     1.6378   1.7276   1.8189   1.9360   1.9824   2.0575   2.2387   2.3457
     3.1808   3.2480   3.3729   3.4204   3.9521   3.9631   4.0266   4.2398
     4.3432   4.3446   4.9333   4.9355   5.1448   5.1507   5.2878   5.2927
     5.3779   5.3786   5.4504   5.4516   8.8999   9.3633   9.6942   9.7030
    10.9870  11.1067  11.1784  11.2508  11.3062  11.4155

     occupation numbers 
     1.0000   1.0000   1.0000   1.0000   1.0000   1.0000   1.0000   1.0000
     1.0000   1.0000   1.0000   1.0000   1.0000   1.0000   1.0000   1.0000
     1.0000   1.0000   1.0000   1.0000   1.0000   1.0000   1.0000   1.0000
     1.0000   1.0000   1.0000   1.0000   1.0000   1.0000   1.0000   1.0000
     1.0000   1.0000   1.0000   1.0000   1.0000   1.0000   1.0000   1.0000
     1.0000   1.0000   1.0000   1.0000   1.0000   1.0000   1.0000   1.0000
     1.0000   1.0000   1.0000   1.0000   0.0000   0.0000   0.0000   0.0000
     0.0000   0.0000   0.0000   0.0000   0.0000   0.0000

          k = 0.0000 0.2222 0.2222 ( 27935 PWs)   bands (ev):

   -65.0572 -65.0571 -65.0571 -65.0571 -35.1694 -35.1694 -35.1694 -35.1689
   -35.1686 -35.1686 -35.1685 -35.1685 -35.1685 -35.1684 -35.1681 -35.1680
    -2.3715  -0.8085  -0.8085  -0.3103   0.8131   0.8504   0.8504   1.5733
     1.6331   1.7398   1.7649   1.7817   1.7817   2.4734   2.4734   2.7138
     2.7138   2.7459   3.5349   3.6175   3.7364   3.7364   3.8700   4.3780
     4.3780   4.4983   4.6258   4.8764   4.9617   5.0331   5.3531   5.3958
     5.3958   5.4375   5.4454   5.4454   8.8154   8.8154   9.0300  10.9194
    10.9194  11.0060  11.0272  11.0548  11.3342  12.3860

     occupation numbers 
     1.0000   1.0000   1.0000   1.0000   1.0000   1.0000   1.0000   1.0000
     1.0000   1.0000   1.0000   1.0000   1.0000   1.0000   1.0000   1.0000
     1.0000   1.0000   1.0000   1.0000   1.0000   1.0000   1.0000   1.0000
     1.0000   1.0000   1.0000   1.0000   1.0000   1.0000   1.0000   1.0000
     1.0000   1.0000   1.0000   1.0000   1.0000   1.0000   1.0000   1.0000
     1.0000   1.0000   1.0000   1.0000   1.0000   1.0000   1.0000   1.0000
     1.0000   1.0000   1.0000   1.0000   0.0000   0.0000   0.0000   0.0000
     0.0000   0.0000   0.0000   0.0000   0.0000   0.0000

          k = 0.0000 0.2222 0.3333 ( 27912 PWs)   bands (ev):

   -65.0572 -65.0572 -65.0571 -65.0571 -35.1694 -35.1693 -35.1693 -35.1690
   -35.1688 -35.1687 -35.1686 -35.1685 -35.1684 -35.1684 -35.1682 -35.1681
    -2.1648  -1.1674  -0.6058  -0.1301   0.4387   0.7062   0.8891   1.4750
     1.5746   1.6326   1.7097   1.7422   1.7912   2.4093   2.4900   2.6894
     2.7744   2.8227   3.3138   3.3782   4.0078   4.0344   4.1072   4.4346
     4.6307   4.6839   4.7012   4.8516   5.1439   5.1550   5.2773   5.3118
     5.3916   5.4213   5.4325   5.4415   8.8733   9.2005   9.2764  10.1663
    10.9683  11.0719  11.1613  11.2155  11.2962  11.5146

     occupation numbers 
     1.0000   1.0000   1.0000   1.0000   1.0000   1.0000   1.0000   1.0000
     1.0000   1.0000   1.0000   1.0000   1.0000   1.0000   1.0000   1.0000
     1.0000   1.0000   1.0000   1.0000   1.0000   1.0000   1.0000   1.0000
     1.0000   1.0000   1.0000   1.0000   1.0000   1.0000   1.0000   1.0000
     1.0000   1.0000   1.0000   1.0000   1.0000   1.0000   1.0000   1.0000
     1.0000   1.0000   1.0000   1.0000   1.0000   1.0000   1.0000   1.0000
     1.0000   1.0000   1.0000   1.0000   0.0000   0.0000   0.0000   0.0000
     0.0000   0.0000   0.0000   0.0000   0.0000   0.0000

          k = 0.0000 0.2222 0.4444 ( 27904 PWs)   bands (ev):

   -65.0572 -65.0572 -65.0571 -65.0571 -35.1693 -35.1692 -35.1691 -35.1691
   -35.1689 -35.1689 -35.1684 -35.1684 -35.1684 -35.1683 -35.1683 -35.1682
    -1.8845  -1.5435  -0.3336  -0.0431   0.2189   0.4543   1.0417   1.2533
     1.5196   1.5563   1.7583   1.7782   1.8975   2.1329   2.5392   2.6097
     2.9725   2.9752   3.1370   3.1596   4.1685   4.2063   4.3937   4.5046
     4.5766   4.6846   4.9450   4.9507   5.1435   5.1661   5.2792   5.2892
     5.3636   5.3691   5.4335   5.4372   9.0782   9.5027   9.5597   9.5752
    11.0291  11.0354  11.1180  11.1820  11.3239  11.6737

     occupation numbers 
     1.0000   1.0000   1.0000   1.0000   1.0000   1.0000   1.0000   1.0000
     1.0000   1.0000   1.0000   1.0000   1.0000   1.0000   1.0000   1.0000
     1.0000   1.0000   1.0000   1.0000   1.0000   1.0000   1.0000   1.0000
     1.0000   1.0000   1.0000   1.0000   1.0000   1.0000   1.0000   1.0000
     1.0000   1.0000   1.0000   1.0000   1.0000   1.0000   1.0000   1.0000
     1.0000   1.0000   1.0000   1.0000   1.0000   1.0000   1.0000   1.0000
     1.0000   1.0000   1.0000   1.0000   0.0000   0.0000   0.0000   0.0000
     0.0000   0.0000   0.0000   0.0000   0.0000   0.0000

          k = 0.0000 0.3333 0.3333 ( 27918 PWs)   bands (ev):

   -65.0572 -65.0572 -65.0571 -65.0571 -35.1693 -35.1693 -35.1692 -35.1691
   -35.1688 -35.1687 -35.1687 -35.1684 -35.1684 -35.1683 -35.1683 -35.1681
    -1.9589  -0.9631  -0.9631  -0.0185   0.1324   0.7942   0.7942   1.4812
     1.5215   1.5229   1.5564   1.5564   1.8432   2.5267   2.5267   2.7297
     2.7297   2.7516   3.1214   3.1231   4.3282   4.3282   4.4265   4.7202
     4.7202   4.7555   4.7707   5.0535   5.1441   5.1954   5.2327   5.3211
     5.3211   5.4128   5.4134   5.4134   9.2030   9.2030   9.3451  10.2630
    10.4493  11.1082  11.1082  11.1849  11.2451  11.2451

     occupation numbers 
     1.0000   1.0000   1.0000   1.0000   1.0000   1.0000   1.0000   1.0000
     1.0000   1.0000   1.0000   1.0000   1.0000   1.0000   1.0000   1.0000
     1.0000   1.0000   1.0000   1.0000   1.0000   1.0000   1.0000   1.0000
     1.0000   1.0000   1.0000   1.0000   1.0000   1.0000   1.0000   1.0000
     1.0000   1.0000   1.0000   1.0000   1.0000   1.0000   1.0000   1.0000
     1.0000   1.0000   1.0000   1.0000   1.0000   1.0000   1.0000   1.0000
     1.0000   1.0000   1.0000   1.0000   0.0000   0.0000   0.0000   0.0000
     0.0000   0.0000   0.0000   0.0000   0.0000   0.0000

          k = 0.0000 0.3333 0.4444 ( 27910 PWs)   bands (ev):

   -65.0572 -65.0572 -65.0571 -65.0571 -35.1693 -35.1692 -35.1692 -35.1690
   -35.1690 -35.1688 -35.1686 -35.1684 -35.1683 -35.1683 -35.1682 -35.1681
    -1.6794  -1.3390  -0.6856  -0.3476   0.3225   0.5846   0.9880   1.2405
     1.4524   1.4594   1.5147   1.5358   2.0270   2.2571   2.6878   2.7338
     2.7510   2.8775   2.8888   2.9899   4.5088   4.5661   4.6821   4.7598
     4.7844   4.9448   4.9583   4.9604   5.1305   5.1807   5.2592   5.2778
     5.3124   5.3591   5.4038   5.4061   9.3480   9.4830   9.4957   9.7152
    10.6460  10.8313  10.9970  11.1448  11.1692  11.3369

     occupation numbers 
     1.0000   1.0000   1.0000   1.0000   1.0000   1.0000   1.0000   1.0000
     1.0000   1.0000   1.0000   1.0000   1.0000   1.0000   1.0000   1.0000
     1.0000   1.0000   1.0000   1.0000   1.0000   1.0000   1.0000   1.0000
     1.0000   1.0000   1.0000   1.0000   1.0000   1.0000   1.0000   1.0000
     1.0000   1.0000   1.0000   1.0000   1.0000   1.0000   1.0000   1.0000
     1.0000   1.0000   1.0000   1.0000   1.0000   1.0000   1.0000   1.0000
     1.0000   1.0000   1.0000   1.0000   0.0000   0.0000   0.0000   0.0000
     0.0000   0.0000   0.0000   0.0000   0.0000   0.0000

          k = 0.0000 0.4444 0.4444 ( 27936 PWs)   bands (ev):

   -65.0572 -65.0572 -65.0572 -65.0571 -35.1692 -35.1692 -35.1692 -35.1691
   -35.1689 -35.1687 -35.1687 -35.1686 -35.1683 -35.1682 -35.1682 -35.1682
    -1.4009  -1.0612  -1.0612  -0.7221   0.5551   0.8112   0.8112   1.0776
     1.3957   1.4063   1.4092   1.4092   2.2050   2.4276   2.4276   2.6405
     2.8094   2.8377   2.8377   2.9062   4.8581   4.8581   4.9106   4.9139
     4.9535   4.9588   4.9588   5.0518   5.0802   5.1803   5.1803   5.1823
     5.3033   5.3560   5.3560   5.3714   9.5262   9.5640   9.5640   9.7792
    10.3247  10.5600  10.5600  10.6994  11.2533  11.3202

     occupation numbers 
     1.0000   1.0000   1.0000   1.0000   1.0000   1.0000   1.0000   1.0000
     1.0000   1.0000   1.0000   1.0000   1.0000   1.0000   1.0000   1.0000
     1.0000   1.0000   1.0000   1.0000   1.0000   1.0000   1.0000   1.0000
     1.0000   1.0000   1.0000   1.0000   1.0000   1.0000   1.0000   1.0000
     1.0000   1.0000   1.0000   1.0000   1.0000   1.0000   1.0000   1.0000
     1.0000   1.0000   1.0000   1.0000   1.0000   1.0000   1.0000   1.0000
     1.0000   1.0000   1.0000   1.0000   0.0000   0.0000   0.0000   0.0000
     0.0000   0.0000   0.0000   0.0000   0.0000   0.0000

          k = 0.1111 0.1111 0.1111 ( 27891 PWs)   bands (ev):

   -65.0572 -65.0571 -65.0571 -65.0571 -35.1696 -35.1696 -35.1696 -35.1687
   -35.1687 -35.1686 -35.1686 -35.1685 -35.1685 -35.1682 -35.1680 -35.1680
    -2.5819  -0.6328  -0.6328  -0.6328   1.0430   1.0430   1.0430   1.7981
     1.7981   1.8707   1.8707   1.8707   2.0150   2.0150   2.0150   2.9545
     2.9545   2.9545   3.3722   3.3722   3.3722   3.7522   4.1384   4.1384
     4.1384   4.3250   4.3250   4.7944   4.7944   4.8144   5.4296   5.4296
     5.4296   5.4502   5.4502   5.4503   8.6325   8.6325   8.6325  10.8389
    10.8389  10.8389  11.4880  11.8948  11.8948  12.3979

     occupation numbers 
     1.0000   1.0000   1.0000   1.0000   1.0000   1.0000   1.0000   1.0000
     1.0000   1.0000   1.0000   1.0000   1.0000   1.0000   1.0000   1.0000
     1.0000   1.0000   1.0000   1.0000   1.0000   1.0000   1.0000   1.0000
     1.0000   1.0000   1.0000   1.0000   1.0000   1.0000   1.0000   1.0000
     1.0000   1.0000   1.0000   1.0000   1.0000   1.0000   1.0000   1.0000
     1.0000   1.0000   1.0000   1.0000   1.0000   1.0000   1.0000   1.0000
     1.0000   1.0000   1.0000   1.0000   0.0000   0.0000   0.0000   0.0000
     0.0000   0.0000   0.0000   0.0000   0.0000   0.0000

          k = 0.1111 0.1111 0.2222 ( 27899 PWs)   bands (ev):

   -65.0572 -65.0571 -65.0571 -65.0571 -35.1695 -35.1695 -35.1695 -35.1688
   -35.1687 -35.1686 -35.1685 -35.1685 -35.1685 -35.1684 -35.1681 -35.1680
    -2.4554  -0.8909  -0.5127  -0.5127   0.8834   0.9363   0.9363   1.6634
     1.6713   1.6713   1.8195   1.9452   1.9452   1.9971   2.2911   2.8046
     2.8046   3.1835   3.4117   3.4542   3.6477   3.6477   4.0997   4.1891
     4.3879   4.3879   4.4238   4.7782   4.9414   5.0031   5.3855   5.3855
     5.4275   5.4449   5.4479   5.4479   8.6406   8.8699   8.8699  10.8689
    10.9296  10.9296  10.9380  11.3584  11.9047  12.1878

     occupation numbers 
     1.0000   1.0000   1.0000   1.0000   1.0000   1.0000   1.0000   1.0000
     1.0000   1.0000   1.0000   1.0000   1.0000   1.0000   1.0000   1.0000
     1.0000   1.0000   1.0000   1.0000   1.0000   1.0000   1.0000   1.0000
     1.0000   1.0000   1.0000   1.0000   1.0000   1.0000   1.0000   1.0000
     1.0000   1.0000   1.0000   1.0000   1.0000   1.0000   1.0000   1.0000
     1.0000   1.0000   1.0000   1.0000   1.0000   1.0000   1.0000   1.0000
     1.0000   1.0000   1.0000   1.0000   0.0000   0.0000   0.0000   0.0000
     0.0000   0.0000   0.0000   0.0000   0.0000   0.0000

          k = 0.1111 0.1111 0.3333 ( 27904 PWs)   bands (ev):

   -65.0572 -65.0572 -65.0571 -65.0571 -35.1694 -35.1694 -35.1693 -35.1689
   -35.1689 -35.1686 -35.1685 -35.1685 -35.1685 -35.1684 -35.1681 -35.1681
    -2.2484  -1.2503  -0.3201  -0.3201   0.6741   0.6741   0.9075   1.4679
     1.5986   1.5986   1.8521   1.8964   1.8964   1.9686   2.5691   2.6380
     2.6380   3.1924   3.4813   3.5767   3.8907   3.8907   3.8964   4.2753
     4.3726   4.6738   4.6738   4.7116   5.1281   5.1743   5.2967   5.2967
     5.4138   5.4249   5.4471   5.4471   8.7208   9.2439   9.2439  10.0860
    10.9199  11.1093  11.1093  11.1957  11.7731  11.7732

     occupation numbers 
     1.0000   1.0000   1.0000   1.0000   1.0000   1.0000   1.0000   1.0000
     1.0000   1.0000   1.0000   1.0000   1.0000   1.0000   1.0000   1.0000
     1.0000   1.0000   1.0000   1.0000   1.0000   1.0000   1.0000   1.0000
     1.0000   1.0000   1.0000   1.0000   1.0000   1.0000   1.0000   1.0000
     1.0000   1.0000   1.0000   1.0000   1.0000   1.0000   1.0000   1.0000
     1.0000   1.0000   1.0000   1.0000   1.0000   1.0000   1.0000   1.0000
     1.0000   1.0000   1.0000   1.0000   0.0000   0.0000   0.0000   0.0000
     0.0000   0.0000   0.0000   0.0000   0.0000   0.0000

          k = 0.1111 0.1111 0.4444 ( 27886 PWs)   bands (ev):

   -65.0572 -65.0572 -65.0571 -65.0571 -35.1693 -35.1693 -35.1691 -35.1690
   -35.1690 -35.1688 -35.1685 -35.1685 -35.1684 -35.1683 -35.1682 -35.1682
    -1.9677  -1.6265  -0.0865  -0.0865   0.3678   0.3678   1.0476   1.2488
     1.6310   1.6310   1.8394   1.8394   1.8913   1.9319   2.5404   2.5404
     2.7710   2.9687   3.5845   3.7232   3.9730   4.0182   4.0182   4.2333
     4.4047   4.5737   4.9399   4.9399   5.1509   5.1509   5.2799   5.2983
     5.3752   5.3755   5.4468   5.4468   8.9523   9.4025   9.6391   9.6391
    10.9920  11.0836  11.1716  11.1716  11.4115  11.4115

     occupation numbers 
     1.0000   1.0000   1.0000   1.0000   1.0000   1.0000   1.0000   1.0000
     1.0000   1.0000   1.0000   1.0000   1.0000   1.0000   1.0000   1.0000
     1.0000   1.0000   1.0000   1.0000   1.0000   1.0000   1.0000   1.0000
     1.0000   1.0000   1.0000   1.0000   1.0000   1.0000   1.0000   1.0000
     1.0000   1.0000   1.0000   1.0000   1.0000   1.0000   1.0000   1.0000
     1.0000   1.0000   1.0000   1.0000   1.0000   1.0000   1.0000   1.0000
     1.0000   1.0000   1.0000   1.0000   0.0000   0.0000   0.0000   0.0000
     0.0000   0.0000   0.0000   0.0000   0.0000   0.0000

          k = 0.1111 0.2222 0.2222 ( 27915 PWs)   bands (ev):

   -65.0572 -65.0571 -65.0571 -65.0571 -35.1694 -35.1694 -35.1694 -35.1688
   -35.1687 -35.1687 -35.1685 -35.1685 -35.1685 -35.1685 -35.1681 -35.1680
    -2.3293  -0.7672  -0.7672  -0.3929   0.7441   0.8223   0.8223   1.6369
     1.6454   1.7372   1.7373   1.7703   1.7703   2.1070   2.1070   2.9044
     3.0668   3.0668   3.1094   3.7445   3.7445   3.8769   4.0257   4.4318
     4.4318   4.5141   4.5282   4.9291   4.9687   5.0658   5.3561   5.3894
     5.3894   5.4366   5.4409   5.4409   8.8594   8.8594   9.0146  10.8538
    10.9526  10.9526  11.0522  11.0576  11.4283  12.3698

     occupation numbers 
     1.0000   1.0000   1.0000   1.0000   1.0000   1.0000   1.0000   1.0000
     1.0000   1.0000   1.0000   1.0000   1.0000   1.0000   1.0000   1.0000
     1.0000   1.0000   1.0000   1.0000   1.0000   1.0000   1.0000   1.0000
     1.0000   1.0000   1.0000   1.0000   1.0000   1.0000   1.0000   1.0000
     1.0000   1.0000   1.0000   1.0000   1.0000   1.0000   1.0000   1.0000
     1.0000   1.0000   1.0000   1.0000   1.0000   1.0000   1.0000   1.0000
     1.0000   1.0000   1.0000   1.0000   0.0000   0.0000   0.0000   0.0000
     0.0000   0.0000   0.0000   0.0000   0.0000   0.0000

          k = 0.1111 0.2222 0.3333 ( 27909 PWs)   bands (ev):

   -65.0572 -65.0572 -65.0571 -65.0571 -35.1694 -35.1694 -35.1693 -35.1689
   -35.1688 -35.1687 -35.1685 -35.1684 -35.1684 -35.1684 -35.1682 -35.1681
    -2.1228  -1.1261  -0.5651  -0.2007   0.4192   0.6495   0.8742   1.4772
     1.5705   1.6075   1.6945   1.7256   1.7769   2.0043   2.2732   2.8256
     2.8880   2.9317   3.3460   3.8511   3.9706   4.0382   4.1214   4.5088
     4.5525   4.7012   4.7122   4.9125   5.1214   5.1918   5.2822   5.3082
     5.3858   5.4184   5.4307   5.4368   8.9113   9.1972   9.2521  10.1637
    10.9801  10.9851  11.1164  11.2875  11.3989  11.5361

     occupation numbers 
     1.0000   1.0000   1.0000   1.0000   1.0000   1.0000   1.0000   1.0000
     1.0000   1.0000   1.0000   1.0000   1.0000   1.0000   1.0000   1.0000
     1.0000   1.0000   1.0000   1.0000   1.0000   1.0000   1.0000   1.0000
     1.0000   1.0000   1.0000   1.0000   1.0000   1.0000   1.0000   1.0000
     1.0000   1.0000   1.0000   1.0000   1.0000   1.0000   1.0000   1.0000
     1.0000   1.0000   1.0000   1.0000   1.0000   1.0000   1.0000   1.0000
     1.0000   1.0000   1.0000   1.0000   0.0000   0.0000   0.0000   0.0000
     0.0000   0.0000   0.0000   0.0000   0.0000   0.0000

          k = 0.1111 0.2222 0.4444 ( 27897 PWs)   bands (ev):

   -65.0572 -65.0572 -65.0571 -65.0571 -35.1693 -35.1693 -35.1691 -35.1690
   -35.1689 -35.1689 -35.1684 -35.1684 -35.1684 -35.1683 -35.1683 -35.1682
    -1.8428  -1.5021  -0.2932  -0.0112   0.1253   0.3723   1.0364   1.2542
     1.5197   1.5507   1.7435   1.7633   1.7718   1.8883   2.4289   2.6048
     2.8569   2.8626   3.5321   3.6865   4.2026   4.2329   4.2662   4.4622
     4.6333   4.7980   4.9515   4.9548   5.1494   5.1659   5.2689   5.2996
     5.3605   5.3669   5.4303   5.4329   9.1080   9.5162   9.5213   9.5249
    11.0098  11.0124  11.0294  11.1289  11.4054  11.5167

     occupation numbers 
     1.0000   1.0000   1.0000   1.0000   1.0000   1.0000   1.0000   1.0000
     1.0000   1.0000   1.0000   1.0000   1.0000   1.0000   1.0000   1.0000
     1.0000   1.0000   1.0000   1.0000   1.0000   1.0000   1.0000   1.0000
     1.0000   1.0000   1.0000   1.0000   1.0000   1.0000   1.0000   1.0000
     1.0000   1.0000   1.0000   1.0000   1.0000   1.0000   1.0000   1.0000
     1.0000   1.0000   1.0000   1.0000   1.0000   1.0000   1.0000   1.0000
     1.0000   1.0000   1.0000   1.0000   0.0000   0.0000   0.0000   0.0000
     0.0000   0.0000   0.0000   0.0000   0.0000   0.0000

          k = 0.1111 0.3333 0.3333 ( 27925 PWs)   bands (ev):

   -65.0572 -65.0572 -65.0571 -65.0571 -35.1694 -35.1693 -35.1693 -35.1689
   -35.1689 -35.1686 -35.1686 -35.1684 -35.1684 -35.1683 -35.1683 -35.1681
    -1.9173  -0.9228  -0.9228  -0.0128   0.0672   0.7592   0.7592   1.4826
     1.5177   1.5218   1.5501   1.5501   1.7293   2.1049   2.1049   2.5493
     2.9999   3.1981   3.1981   3.6893   4.3138   4.3138   4.4282   4.7251
     4.7471   4.7471   4.7826   5.0230   5.1681   5.2186   5.2382   5.3175
     5.3175   5.4097   5.4097   5.4104   9.2003   9.2003   9.3187  10.1924
    10.4774  11.0818  11.0818  11.2117  11.3270  11.3279

     occupation numbers 
     1.0000   1.0000   1.0000   1.0000   1.0000   1.0000   1.0000   1.0000
     1.0000   1.0000   1.0000   1.0000   1.0000   1.0000   1.0000   1.0000
     1.0000   1.0000   1.0000   1.0000   1.0000   1.0000   1.0000   1.0000
     1.0000   1.0000   1.0000   1.0000   1.0000   1.0000   1.0000   1.0000
     1.0000   1.0000   1.0000   1.0000   1.0000   1.0000   1.0000   1.0000
     1.0000   1.0000   1.0000   1.0000   1.0000   1.0000   1.0000   1.0000
     1.0000   1.0000   1.0000   1.0000   0.0000   0.0000   0.0000   0.0000
     0.0000   0.0000   0.0000   0.0000   0.0000   0.0000

          k = 0.1111 0.3333 0.4444 ( 27928 PWs)   bands (ev):

   -65.0572 -65.0572 -65.0571 -65.0571 -35.1694 -35.1694 -35.1692 -35.1691
   -35.1689 -35.1687 -35.1685 -35.1684 -35.1683 -35.1683 -35.1682 -35.1681
    -1.6383  -1.2984  -0.6470  -0.3113   0.2465   0.5260   0.9694   1.2348
     1.4509   1.4587   1.5119   1.5308   1.8353   1.9654   2.2178   2.3580
     3.0506   3.1045   3.3813   3.5323   4.5155   4.5727   4.6136   4.7450
     4.8257   4.9645   4.9659   4.9683   5.1364   5.1800   5.2519   5.2886
     5.3093   5.3566   5.4002   5.4020   9.3433   9.4472   9.4565   9.6996
    10.6152  10.8342  10.8846  10.9763  11.2131  11.2416

     occupation numbers 
     1.0000   1.0000   1.0000   1.0000   1.0000   1.0000   1.0000   1.0000
     1.0000   1.0000   1.0000   1.0000   1.0000   1.0000   1.0000   1.0000
     1.0000   1.0000   1.0000   1.0000   1.0000   1.0000   1.0000   1.0000
     1.0000   1.0000   1.0000   1.0000   1.0000   1.0000   1.0000   1.0000
     1.0000   1.0000   1.0000   1.0000   1.0000   1.0000   1.0000   1.0000
     1.0000   1.0000   1.0000   1.0000   1.0000   1.0000   1.0000   1.0000
     1.0000   1.0000   1.0000   1.0000   0.0000   0.0000   0.0000   0.0000
     0.0000   0.0000   0.0000   0.0000   0.0000   0.0000

          k = 0.1111 0.4444 0.4444 ( 27924 PWs)   bands (ev):

   -65.0572 -65.0572 -65.0572 -65.0571 -35.1694 -35.1693 -35.1693 -35.1692
   -35.1687 -35.1686 -35.1686 -35.1685 -35.1683 -35.1682 -35.1682 -35.1682
    -1.3606  -1.0220  -1.0220  -0.6848   0.4962   0.7702   0.7702   1.0539
     1.3960   1.4059   1.4081   1.4081   1.9400   2.0678   2.0678   2.1941
     3.1639   3.2610   3.2610   3.3907   4.8458   4.8458   4.9072   4.9093
     4.9589   4.9739   4.9739   5.0443   5.0859   5.1778   5.1778   5.1830
     5.3046   5.3523   5.3523   5.3668   9.4900   9.5278   9.5278   9.7319
    10.3421  10.5638  10.5639  10.6942  11.2509  11.3257

     occupation numbers 
     1.0000   1.0000   1.0000   1.0000   1.0000   1.0000   1.0000   1.0000
     1.0000   1.0000   1.0000   1.0000   1.0000   1.0000   1.0000   1.0000
     1.0000   1.0000   1.0000   1.0000   1.0000   1.0000   1.0000   1.0000
     1.0000   1.0000   1.0000   1.0000   1.0000   1.0000   1.0000   1.0000
     1.0000   1.0000   1.0000   1.0000   1.0000   1.0000   1.0000   1.0000
     1.0000   1.0000   1.0000   1.0000   1.0000   1.0000   1.0000   1.0000
     1.0000   1.0000   1.0000   1.0000   0.0000   0.0000   0.0000   0.0000
     0.0000   0.0000   0.0000   0.0000   0.0000   0.0000

          k = 0.2222 0.2222 0.2222 ( 27910 PWs)   bands (ev):

   -65.0572 -65.0571 -65.0571 -65.0571 -35.1694 -35.1694 -35.1694 -35.1687
   -35.1687 -35.1687 -35.1687 -35.1684 -35.1684 -35.1684 -35.1681 -35.1681
    -2.2036  -0.6447  -0.6447  -0.6447   0.7078   0.7078   0.7078   1.6479
     1.6479   1.7298   1.7298   1.7298   1.7564   1.7564   1.7564   2.6852
     3.3024   3.3024   3.3024   3.8991   3.8991   3.8991   4.3712   4.3712
     4.5635   4.5635   4.5635   4.9051   5.1091   5.1091   5.3625   5.3625
     5.3625   5.4304   5.4304   5.4304   8.9924   8.9924   8.9924  10.6291
    11.0607  11.0607  11.0607  11.1313  11.1313  12.3013

     occupation numbers 
     1.0000   1.0000   1.0000   1.0000   1.0000   1.0000   1.0000   1.0000
     1.0000   1.0000   1.0000   1.0000   1.0000   1.0000   1.0000   1.0000
     1.0000   1.0000   1.0000   1.0000   1.0000   1.0000   1.0000   1.0000
     1.0000   1.0000   1.0000   1.0000   1.0000   1.0000   1.0000   1.0000
     1.0000   1.0000   1.0000   1.0000   1.0000   1.0000   1.0000   1.0000
     1.0000   1.0000   1.0000   1.0000   1.0000   1.0000   1.0000   1.0000
     1.0000   1.0000   1.0000   1.0000   0.0000   0.0000   0.0000   0.0000
     0.0000   0.0000   0.0000   0.0000   0.0000   0.0000

          k = 0.2222 0.2222 0.3333 ( 27907 PWs)   bands (ev):

   -65.0572 -65.0572 -65.0571 -65.0571 -35.1694 -35.1694 -35.1694 -35.1689
[...]
     atom    8 type  2   force =    -0.00000000   -0.00000000   -0.00000000
     atom    9 type  1   force =    -0.00000000   -0.00000000   -2.45700671
     atom   10 type  1   force =     0.00000000    2.45700671    0.00000000
     atom   11 type  1   force =     2.45700671   -0.00000000    0.00000000
     atom   12 type  1   force =    -0.00000000   -0.00000000    2.45700671
     atom   13 type  1   force =    -0.00000000   -2.45700671   -0.00000000
     atom   14 type  1   force =    -2.45700671    0.00000000    0.00000000
     atom   15 type  1   force =    -0.00000000    0.00000000   -2.45700671
     atom   16 type  1   force =     0.00000000    2.45700671   -0.00000000
     atom   17 type  1   force =     2.45700671    0.00000000   -0.00000000
     atom   18 type  1   force =    -0.00000000    0.00000000    2.45700671
     atom   19 type  1   force =    -0.00000000   -2.45700671    0.00000000
     atom   20 type  1   force =    -2.45700671    0.00000000   -0.00000000
     atom   21 type  1   force =     0.00000000   -0.00000000   -2.45700671
     atom   22 type  1   force =     0.00000000    2.45700671   -0.00000000
     atom   23 type  1   force =     2.45700671   -0.00000000   -0.00000000
     atom   24 type  1   force =     0.00000000   -0.00000000    2.45700671
     atom   25 type  1   force =    -0.00000000   -2.45700671   -0.00000000
     atom   26 type  1   force =    -2.45700671    0.00000000   -0.00000000
     atom   27 type  1   force =    -0.00000000   -0.00000000   -2.45700671
     atom   28 type  1   force =     0.00000000    2.45700671    0.00000000
     atom   29 type  1   force =     2.45700671   -0.00000000    0.00000000
     atom   30 type  1   force =     0.00000000    0.00000000    2.45700671
     atom   31 type  1   force =    -0.00000000   -2.45700671   -0.00000000
     atom   32 type  1   force =    -2.45700671   -0.00000000   -0.00000000
     atom   33 type  3   force =    -0.00000000   -0.00000000   -0.00000000
     atom   34 type  3   force =    -0.00000000    0.00000000    0.00000000
     atom   35 type  3   force =     0.00000000   -0.00000000    0.00000000
     atom   36 type  3   force =     0.00000000    0.00000000   -0.00000000
     The local contribution  to forces
     atom    1 type  2   force =     0.00000029   -0.00000029    0.00000029
     atom    2 type  2   force =    -0.00000029   -0.00000029    0.00000029
     atom    3 type  2   force =     0.00000029    0.00000029   -0.00000029
     atom    4 type  2   force =    -0.00000029    0.00000029   -0.00000029
     atom    5 type  2   force =    -0.00000029   -0.00000029   -0.00000029
     atom    6 type  2   force =     0.00000029   -0.00000029   -0.00000029
     atom    7 type  2   force =    -0.00000029    0.00000029    0.00000029
     atom    8 type  2   force =     0.00000029    0.00000029    0.00000029
     atom    9 type  1   force =     0.00000000    0.00000000    2.43089309
     atom   10 type  1   force =     0.00000000   -2.43089893   -0.00000000
     atom   11 type  1   force =    -2.43089893    0.00000000   -0.00000000
     atom   12 type  1   force =    -0.00000000    0.00000000   -2.43089309
     atom   13 type  1   force =     0.00000000    2.43089309    0.00000000
     atom   14 type  1   force =     2.43089893   -0.00000000    0.00000000
     atom   15 type  1   force =     0.00000000    0.00000000    2.43089893
     atom   16 type  1   force =    -0.00000000   -2.43089309    0.00000000
     atom   17 type  1   force =    -2.43089893    0.00000000   -0.00000000
     atom   18 type  1   force =    -0.00000000   -0.00000000   -2.43089893
     atom   19 type  1   force =    -0.00000000    2.43089893    0.00000000
     atom   20 type  1   force =     2.43089893   -0.00000000    0.00000000
     atom   21 type  1   force =     0.00000000    0.00000000    2.43089893
     atom   22 type  1   force =     0.00000000   -2.43089893    0.00000000
     atom   23 type  1   force =    -2.43089309    0.00000000   -0.00000000
     atom   24 type  1   force =    -0.00000000    0.00000000   -2.43089893
     atom   25 type  1   force =    -0.00000000    2.43089886    0.00000000
     atom   26 type  1   force =     2.43089309   -0.00000000    0.00000000
     atom   27 type  1   force =     0.00000000    0.00000000    2.43089886
     atom   28 type  1   force =     0.00000000   -2.43089886    0.00000000
     atom   29 type  1   force =    -2.43089886    0.00000000    0.00000000
     atom   30 type  1   force =    -0.00000000    0.00000000   -2.43089886
     atom   31 type  1   force =    -0.00000000    2.43089893   -0.00000000
     atom   32 type  1   force =     2.43089886   -0.00000000    0.00000000
     atom   33 type  3   force =     0.00000000    0.00000000    0.00000000
     atom   34 type  3   force =     0.00000000    0.00000000    0.00000000
     atom   35 type  3   force =     0.00000000    0.00000000    0.00000000
     atom   36 type  3   force =     0.00000000    0.00000000    0.00000000
     The core correction contribution to forces
     atom    1 type  2   force =    -0.00000007    0.00000007   -0.00000007
     atom    2 type  2   force =     0.00000007    0.00000007   -0.00000007
     atom    3 type  2   force =    -0.00000007   -0.00000007    0.00000007
     atom    4 type  2   force =     0.00000007   -0.00000007    0.00000007
     atom    5 type  2   force =     0.00000007    0.00000007    0.00000007
     atom    6 type  2   force =    -0.00000007    0.00000007    0.00000007
     atom    7 type  2   force =     0.00000007   -0.00000007   -0.00000007
     atom    8 type  2   force =    -0.00000007   -0.00000007   -0.00000007
     atom    9 type  1   force =     0.00000000    0.00000000    0.00000000
     atom   10 type  1   force =     0.00000000    0.00000000    0.00000000
     atom   11 type  1   force =     0.00000000    0.00000000    0.00000000
     atom   12 type  1   force =     0.00000000    0.00000000    0.00000000
     atom   13 type  1   force =     0.00000000    0.00000000    0.00000000
     atom   14 type  1   force =     0.00000000    0.00000000    0.00000000
     atom   15 type  1   force =     0.00000000    0.00000000    0.00000000
     atom   16 type  1   force =     0.00000000    0.00000000    0.00000000
     atom   17 type  1   force =     0.00000000    0.00000000    0.00000000
     atom   18 type  1   force =     0.00000000    0.00000000    0.00000000
     atom   19 type  1   force =     0.00000000    0.00000000    0.00000000
     atom   20 type  1   force =     0.00000000    0.00000000    0.00000000
     atom   21 type  1   force =     0.00000000    0.00000000    0.00000000
     atom   22 type  1   force =     0.00000000    0.00000000    0.00000000
     atom   23 type  1   force =     0.00000000    0.00000000    0.00000000
     atom   24 type  1   force =     0.00000000    0.00000000    0.00000000
     atom   25 type  1   force =     0.00000000    0.00000000    0.00000000
     atom   26 type  1   force =     0.00000000    0.00000000    0.00000000
     atom   27 type  1   force =     0.00000000    0.00000000    0.00000000
     atom   28 type  1   force =     0.00000000    0.00000000    0.00000000
     atom   29 type  1   force =     0.00000000    0.00000000    0.00000000
     atom   30 type  1   force =     0.00000000    0.00000000    0.00000000
     atom   31 type  1   force =     0.00000000    0.00000000    0.00000000
     atom   32 type  1   force =     0.00000000    0.00000000    0.00000000
     atom   33 type  3   force =     0.00000000    0.00000000    0.00000000
     atom   34 type  3   force =     0.00000000    0.00000000    0.00000000
     atom   35 type  3   force =     0.00000000    0.00000000    0.00000000
     atom   36 type  3   force =     0.00000000    0.00000000    0.00000000
     The Hubbard contrib.    to forces
     atom    1 type  2   force =     0.00000000    0.00000000    0.00000000
     atom    2 type  2   force =     0.00000000    0.00000000    0.00000000
     atom    3 type  2   force =     0.00000000    0.00000000    0.00000000
     atom    4 type  2   force =     0.00000000    0.00000000    0.00000000
     atom    5 type  2   force =     0.00000000    0.00000000    0.00000000
     atom    6 type  2   force =     0.00000000    0.00000000    0.00000000
     atom    7 type  2   force =     0.00000000    0.00000000    0.00000000
     atom    8 type  2   force =     0.00000000    0.00000000    0.00000000
     atom    9 type  1   force =     0.00000000    0.00000000    0.00000000
     atom   10 type  1   force =     0.00000000    0.00000000    0.00000000
     atom   11 type  1   force =     0.00000000    0.00000000    0.00000000
     atom   12 type  1   force =     0.00000000    0.00000000    0.00000000
     atom   13 type  1   force =     0.00000000    0.00000000    0.00000000
     atom   14 type  1   force =     0.00000000    0.00000000    0.00000000
     atom   15 type  1   force =     0.00000000    0.00000000    0.00000000
     atom   16 type  1   force =     0.00000000    0.00000000    0.00000000
     atom   17 type  1   force =     0.00000000    0.00000000    0.00000000
     atom   18 type  1   force =     0.00000000    0.00000000    0.00000000
     atom   19 type  1   force =     0.00000000    0.00000000    0.00000000
     atom   20 type  1   force =     0.00000000    0.00000000    0.00000000
     atom   21 type  1   force =     0.00000000    0.00000000    0.00000000
     atom   22 type  1   force =     0.00000000    0.00000000    0.00000000
     atom   23 type  1   force =     0.00000000    0.00000000    0.00000000
     atom   24 type  1   force =     0.00000000    0.00000000    0.00000000
     atom   25 type  1   force =     0.00000000    0.00000000    0.00000000
     atom   26 type  1   force =     0.00000000    0.00000000    0.00000000
     atom   27 type  1   force =     0.00000000    0.00000000    0.00000000
     atom   28 type  1   force =     0.00000000    0.00000000    0.00000000
     atom   29 type  1   force =     0.00000000    0.00000000    0.00000000
     atom   30 type  1   force =     0.00000000    0.00000000    0.00000000
     atom   31 type  1   force =     0.00000000    0.00000000    0.00000000
     atom   32 type  1   force =     0.00000000    0.00000000    0.00000000
     atom   33 type  3   force =     0.00000000    0.00000000    0.00000000
     atom   34 type  3   force =     0.00000000    0.00000000    0.00000000
     atom   35 type  3   force =     0.00000000    0.00000000    0.00000000
     atom   36 type  3   force =     0.00000000    0.00000000    0.00000000
     The SCF correction term to forces
     atom    1 type  2   force =    -0.00000096    0.00000096   -0.00000096
     atom    2 type  2   force =     0.00000096    0.00000096   -0.00000096
     atom    3 type  2   force =    -0.00000096   -0.00000096    0.00000096
     atom    4 type  2   force =     0.00000096   -0.00000096    0.00000096
     atom    5 type  2   force =     0.00000096    0.00000096    0.00000096
     atom    6 type  2   force =    -0.00000096    0.00000096    0.00000096
     atom    7 type  2   force =     0.00000096   -0.00000096   -0.00000096
     atom    8 type  2   force =    -0.00000096   -0.00000096   -0.00000096
     atom    9 type  1   force =    -0.00000000   -0.00000000    0.00001024
     atom   10 type  1   force =    -0.00000000   -0.00000536   -0.00000000
     atom   11 type  1   force =    -0.00000536    0.00000000   -0.00000000
     atom   12 type  1   force =    -0.00000000    0.00000000   -0.00001024
     atom   13 type  1   force =    -0.00000000    0.00001024   -0.00000000
     atom   14 type  1   force =     0.00000536    0.00000000    0.00000000
     atom   15 type  1   force =    -0.00000000    0.00000000    0.00000536
     atom   16 type  1   force =     0.00000000   -0.00001024   -0.00000000
     atom   17 type  1   force =    -0.00000536    0.00000000   -0.00000000
     atom   18 type  1   force =    -0.00000000   -0.00000000   -0.00000536
     atom   19 type  1   force =    -0.00000000    0.00000536   -0.00000000
     atom   20 type  1   force =     0.00000536   -0.00000000   -0.00000000
     atom   21 type  1   force =     0.00000000   -0.00000000    0.00000536
     atom   22 type  1   force =    -0.00000000   -0.00000536   -0.00000000
     atom   23 type  1   force =    -0.00001024   -0.00000000   -0.00000000
     atom   24 type  1   force =     0.00000000    0.00000000   -0.00000536
     atom   25 type  1   force =     0.00000000    0.00000539   -0.00000000
     atom   26 type  1   force =     0.00001024   -0.00000000   -0.00000000
     atom   27 type  1   force =    -0.00000000   -0.00000000    0.00000539
     atom   28 type  1   force =     0.00000000   -0.00000539   -0.00000000
     atom   29 type  1   force =    -0.00000539   -0.00000000   -0.00000000
     atom   30 type  1   force =    -0.00000000   -0.00000000   -0.00000539
     atom   31 type  1   force =    -0.00000000    0.00000536   -0.00000000
     atom   32 type  1   force =     0.00000539    0.00000000   -0.00000000
     atom   33 type  3   force =     0.00000000    0.00000000    0.00000000
     atom   34 type  3   force =     0.00000000   -0.00000000    0.00000000
     atom   35 type  3   force =    -0.00000000    0.00000000    0.00000000
     atom   36 type  3   force =     0.00000000    0.00000000    0.00000000

     Total force =     0.017970     Total SCF correction =     0.000034


     Computing stress (Cartesian axis) and pressure

          total   stress  (Ry/bohr**3)                   (kbar)     P=       -2.94
  -0.00001997   0.00000000   0.00000000           -2.94        0.00        0.00
   0.00000000  -0.00001997   0.00000000            0.00       -2.94        0.00
   0.00000000   0.00000000  -0.00001997            0.00        0.00       -2.94

     kinetic stress (kbar)   6460.85      0.00      0.00
                                0.00   6460.85      0.00
                                0.00      0.00   6460.85

     local   stress (kbar)  -4064.99      0.00      0.00
                                0.00  -4064.99     -0.00
                                0.00     -0.00  -4064.99

     nonloc. stress (kbar)   4404.05      0.00      0.00
                                0.00   4404.05      0.00
                                0.00      0.00   4404.05

     hartree stress (kbar)   7254.89      0.00     -0.00
                                0.00   7254.89      0.00
                               -0.00      0.00   7254.89

     exc-cor stress (kbar)  -2042.29     -0.00      0.00
                               -0.00  -2042.29     -0.00
                                0.00     -0.00  -2042.29

     corecor stress (kbar)   -444.41     -0.00      0.00
                               -0.00   -444.41     -0.00
                                0.00     -0.00   -444.41

     ewald   stress (kbar) -11571.03      0.00      0.00
                                0.00 -11571.03      0.00
                                0.00      0.00 -11571.03

     hubbard stress (kbar)      0.00      0.00      0.00
                                0.00      0.00      0.00
                                0.00      0.00      0.00

     DFT-D   stress (kbar)      0.00      0.00      0.00
                                0.00      0.00      0.00
                                0.00      0.00      0.00

     XDM     stress (kbar)      0.00      0.00      0.00
                                0.00      0.00      0.00
                                0.00      0.00      0.00

     dft-nl  stress (kbar)      0.00      0.00      0.00
                                0.00      0.00      0.00
                                0.00      0.00      0.00

     TS-vdW  stress (kbar)      0.00      0.00      0.00
                                0.00      0.00      0.00
                                0.00      0.00      0.00

     MDB     stress (kbar)      0.00      0.00      0.00
                                0.00      0.00      0.00
                                0.00      0.00      0.00

     3D-RISM stress (kbar)      0.00      0.00      0.00
                                0.00      0.00      0.00
                                0.00      0.00      0.00


     Writing all to output data dir ./out/ru-kp-9.save/

     init_run     :      3.66s CPU      4.34s WALL (       1 calls)
     electrons    :     75.49s CPU     91.77s WALL (       1 calls)
     forces       :      1.07s CPU      1.25s WALL (       1 calls)
     stress       :      6.88s CPU      7.10s WALL (       1 calls)

     Called by init_run:
     wfcinit      :      2.18s CPU      2.56s WALL (       1 calls)
     wfcinit:atom :      0.03s CPU      0.03s WALL (      18 calls)
     wfcinit:wfcr :      2.01s CPU      2.39s WALL (      18 calls)
     potinit      :      0.52s CPU      0.68s WALL (       1 calls)
     hinit0       :      0.40s CPU      0.46s WALL (       1 calls)

     Called by electrons:
     c_bands      :     62.53s CPU     74.17s WALL (      15 calls)
     sum_band     :      8.91s CPU     10.74s WALL (      15 calls)
     v_of_rho     :      1.15s CPU      1.37s WALL (      16 calls)
     v_h          :      0.11s CPU      0.14s WALL (      16 calls)
     v_xc         :      1.17s CPU      1.39s WALL (      18 calls)
     newd         :      1.65s CPU      2.14s WALL (      16 calls)
     PAW_pot      :      1.16s CPU      3.22s WALL (      16 calls)
     mix_rho      :      0.17s CPU      0.20s WALL (      15 calls)

     Called by c_bands:
     init_us_2    :      0.94s CPU      1.02s WALL (     594 calls)
     init_us_2:cp :      0.93s CPU      1.01s WALL (     594 calls)
     cegterg      :     58.89s CPU     65.81s WALL (     270 calls)

     Called by sum_band:
     sum_band:wei :      0.00s CPU      0.01s WALL (      15 calls)
     sum_band:loo :      6.94s CPU      8.00s WALL (      15 calls)
     sum_band:buf :      0.13s CPU      0.13s WALL (     270 calls)
     sum_band:ini :      0.35s CPU      0.38s WALL (     270 calls)
     sum_band:cal :      1.16s CPU      1.41s WALL (     270 calls)
     sum_band:bec :      0.03s CPU      0.03s WALL (     270 calls)
     addusdens    :      1.79s CPU      2.47s WALL (      15 calls)
                                        0.00s GPU  (      15 calls)
     addusd:skk   :      0.12s CPU      0.12s WALL (      45 calls)
                                        0.00s GPU  (      45 calls)

     Called by *egterg:
     cdiaghg      :      7.93s CPU      8.36s WALL (    1800 calls)
     cegterg:over :      3.01s CPU      3.49s WALL (    1530 calls)
     cegterg:upda :      1.98s CPU      2.05s WALL (    1530 calls)
     cegterg:last :      3.42s CPU      3.44s WALL (     705 calls)
     h_psi        :     39.64s CPU     45.66s WALL (    1818 calls)
     s_psi        :      2.94s CPU      3.00s WALL (    1818 calls)
     g_psi        :      0.10s CPU      0.10s WALL (    1530 calls)

     Called by h_psi:
     h_psi:calbec :      5.18s CPU      6.28s WALL (    1818 calls)
     vloc_psi     :     30.88s CPU     35.61s WALL (    1818 calls)
     add_vuspsi   :      3.23s CPU      3.40s WALL (    1818 calls)

     General routines
     calbec       :      6.68s CPU      8.11s WALL (    2178 calls)
     fft          :      0.91s CPU      1.21s WALL (     231 calls)
     ffts         :      0.17s CPU      0.17s WALL (      31 calls)
     fftw         :     29.06s CPU     33.59s WALL (  120160 calls)
     interpolate  :      0.23s CPU      0.24s WALL (      16 calls)

     Parallel routines

     PAW routines
     PAW_pot      :      1.16s CPU      3.22s WALL (      16 calls)
     PAW_symme    :      0.01s CPU      0.02s WALL (      31 calls)

     PWSCF        :   1m27.94s CPU   1m46.90s WALL


   This run was terminated on:  22:45:10  13Jun2025            

=------------------------------------------------------------------------------=
   JOB DONE.
=------------------------------------------------------------------------------=
