
     Program PWSCF v.7.2 starts on 13Jun2025 at 22:27:21 

     This program is part of the open-source Quantum ESPRESSO suite
     for quantum simulation of materials; please cite
         "P. Giannozzi et al., J. Phys.:Condens. Matter 21 395502 (2009);
         "P. Giannozzi et al., J. Phys.:Condens. Matter 29 465901 (2017);
         "P. Giannozzi et al., J. Chem. Phys. 152 154105 (2020);
          URL http://www.quantum-espresso.org", 
     in publications or presentations arising from this work. More details at
     http://www.quantum-espresso.org/quote

     Parallel version (MPI & OpenMP), running on      64 processor cores
     Number of MPI processes:                64
     Threads/MPI process:                     1

     MPI processes distributed on     1 nodes
     223155 MiB available memory on the printing compute node when the environment starts

     Reading input from ru_kp_10.in

     Current dimensions of program PWSCF are:
     Max number of different atomic species (ntypx) = 10
     Max number of k-points (npk) =  40000
     Max angular momentum in pseudopotentials (lmaxx) =  4
     Message from routine read_pp_mesh:
     mismatch in mesh size, discarding the one in header
     file Mg.pbesol-n-kjpaw_psl.0.3.0.UPF: wavefunction(s)  3S renormalized
     Found identity + (  0.0000  0.5000 -0.5000) symmetry
     This is a supercell, fractional translations are disabled
     Message from routine setup:
     using ibrav=0 with symmetry is DISCOURAGED, use correct ibrav instead

     K-points division:     npool     =       2
     R & G space division:  proc/nbgrp/npool/nimage =      32
     Subspace diagonalization in iterative solution of the eigenvalue problem:
     a serial algorithm will be used


     Parallelization info
     --------------------
     sticks:   dense  smooth     PW     G-vecs:    dense   smooth      PW
     Min         416     138     37                36246     6970     993
     Max         417     139     38                36253     6975    1000
     Sum       13341    4445   1209              1160031   223135   31919

     Using Slab Decomposition



     bravais-lattice index     =            0
     lattice parameter (alat)  =      12.4630  a.u.
     unit-cell volume          =    1935.8122 (a.u.)^3
     number of atoms/cell      =           36
     number of atomic types    =            3
     number of electrons       =       104.00
     number of Kohn-Sham states=           62
     kinetic-energy cutoff     =      90.0000  Ry
     charge density cutoff     =    1080.0000  Ry
     scf convergence threshold =      7.2E-09
     mixing beta               =       0.4000
     number of iterations used =            8  plain     mixing
     Exchange-correlation= SLA PW PSX PSC
                           (   1   4  10   8   0   0   0)

     celldm(1)=  12.462956  celldm(2)=   0.000000  celldm(3)=   0.000000
     celldm(4)=   0.000000  celldm(5)=   0.000000  celldm(6)=   0.000000

     crystal axes: (cart. coord. in units of alat)
               a(1) = (   1.000000   0.000000   0.000000 )  
               a(2) = (   0.000000   1.000000   0.000000 )  
               a(3) = (   0.000000   0.000000   1.000000 )  

     reciprocal axes: (cart. coord. in units 2 pi/alat)
               b(1) = (  1.000000  0.000000  0.000000 )  
               b(2) = (  0.000000  1.000000  0.000000 )  
               b(3) = (  0.000000  0.000000  1.000000 )  


     PseudoPot. # 1 for H  read from file:
     ./pseudo/H.pbesol-rrkjus_psl.1.0.0.UPF
     MD5 check sum: 0324ed591cc0147dc3d88cad0d33f665
     Pseudo is Ultrasoft, Zval =  1.0
     Generated using "atomic" code by A. Dal Corso  v.6.0 svn rev. 13079
     Using radial grid of  929 points,  2 beta functions with: 
                l(1) =   0
                l(2) =   0
     Q(r) pseudized with 0 coefficients 


     PseudoPot. # 2 for Mg read from file:
     ./pseudo/Mg.pbesol-n-kjpaw_psl.0.3.0.UPF
     MD5 check sum: a6c8d2ff726a5f7005dea00130d82930
     Pseudo is Projector augmented-wave + core cor, Zval =  2.0
     Generated using "atomic" code by A. Dal Corso  v.6.1 svn rev. 13369
     Shape of augmentation charge: PSQ
     Using radial grid of 1129 points,  4 beta functions with: 
                l(1) =   0
                l(2) =   0
                l(3) =   1
                l(4) =   1
     Q(r) pseudized with 0 coefficients 


     PseudoPot. # 3 for Ru read from file:
     ./pseudo/Ru.upf
     MD5 check sum: be3bb57e49b2afd7571f8dd5d9c7d987
     Pseudo is Projector augmented-wave + core cor, Zval = 16.0
     Generated using ATOMPAW code
     Shape of augmentation charge: SINC**2
     Using radial grid of 2342 points,  6 beta functions with: 
                l(1) =   0
                l(2) =   0
                l(3) =   1
                l(4) =   1
                l(5) =   2
                l(6) =   2
     Q(r) pseudized with 0 coefficients 


     atomic species   valence    mass     pseudopotential
        H              1.00     1.00794     H ( 1.00)
        Mg             2.00    24.30500     Mg( 1.00)
        Ru            16.00   101.07000     Ru( 1.00)

     48 Sym. Ops., with inversion, found


                                    s                        frac. trans.

      isym =  1     identity                                     

 cryst.   s( 1) = (     1          0          0      )
                  (     0          1          0      )
                  (     0          0          1      )

 cart.    s( 1) = (  1.0000000  0.0000000  0.0000000 )
                  (  0.0000000  1.0000000  0.0000000 )
                  (  0.0000000  0.0000000  1.0000000 )


      isym =  2     180 deg rotation - cart. axis [0,0,1]        

 cryst.   s( 2) = (    -1          0          0      )
                  (     0         -1          0      )
                  (     0          0          1      )

 cart.    s( 2) = ( -1.0000000  0.0000000  0.0000000 )
                  (  0.0000000 -1.0000000  0.0000000 )
                  (  0.0000000  0.0000000  1.0000000 )


      isym =  3     180 deg rotation - cart. axis [0,1,0]        

 cryst.   s( 3) = (    -1          0          0      )
                  (     0          1          0      )
                  (     0          0         -1      )

 cart.    s( 3) = ( -1.0000000  0.0000000  0.0000000 )
                  (  0.0000000  1.0000000  0.0000000 )
                  (  0.0000000  0.0000000 -1.0000000 )


      isym =  4     180 deg rotation - cart. axis [1,0,0]        

 cryst.   s( 4) = (     1          0          0      )
                  (     0         -1          0      )
                  (     0          0         -1      )

 cart.    s( 4) = (  1.0000000  0.0000000  0.0000000 )
                  (  0.0000000 -1.0000000  0.0000000 )
                  (  0.0000000  0.0000000 -1.0000000 )


      isym =  5     180 deg rotation - cart. axis [1,1,0]        

 cryst.   s( 5) = (     0          1          0      )
                  (     1          0          0      )
                  (     0          0         -1      )

 cart.    s( 5) = (  0.0000000  1.0000000  0.0000000 )
                  (  1.0000000  0.0000000  0.0000000 )
                  (  0.0000000  0.0000000 -1.0000000 )


      isym =  6     180 deg rotation - cart. axis [1,-1,0]       

 cryst.   s( 6) = (     0         -1          0      )
                  (    -1          0          0      )
                  (     0          0         -1      )

 cart.    s( 6) = (  0.0000000 -1.0000000  0.0000000 )
                  ( -1.0000000  0.0000000  0.0000000 )
                  (  0.0000000  0.0000000 -1.0000000 )


      isym =  7      90 deg rotation - cart. axis [0,0,-1]       

 cryst.   s( 7) = (     0         -1          0      )
                  (     1          0          0      )
                  (     0          0          1      )

 cart.    s( 7) = (  0.0000000  1.0000000  0.0000000 )
                  ( -1.0000000  0.0000000  0.0000000 )
                  (  0.0000000  0.0000000  1.0000000 )


      isym =  8      90 deg rotation - cart. axis [0,0,1]        

 cryst.   s( 8) = (     0          1          0      )
                  (    -1          0          0      )
                  (     0          0          1      )

 cart.    s( 8) = (  0.0000000 -1.0000000  0.0000000 )
                  (  1.0000000  0.0000000  0.0000000 )
                  (  0.0000000  0.0000000  1.0000000 )


      isym =  9     180 deg rotation - cart. axis [1,0,1]        

 cryst.   s( 9) = (     0          0          1      )
                  (     0         -1          0      )
                  (     1          0          0      )

 cart.    s( 9) = (  0.0000000  0.0000000  1.0000000 )
                  (  0.0000000 -1.0000000  0.0000000 )
                  (  1.0000000  0.0000000  0.0000000 )


      isym = 10     180 deg rotation - cart. axis [-1,0,1]       

 cryst.   s(10) = (     0          0         -1      )
                  (     0         -1          0      )
                  (    -1          0          0      )

 cart.    s(10) = (  0.0000000  0.0000000 -1.0000000 )
                  (  0.0000000 -1.0000000  0.0000000 )
                  ( -1.0000000  0.0000000  0.0000000 )


      isym = 11      90 deg rotation - cart. axis [0,1,0]        

 cryst.   s(11) = (     0          0         -1      )
                  (     0          1          0      )
                  (     1          0          0      )

 cart.    s(11) = (  0.0000000  0.0000000  1.0000000 )
                  (  0.0000000  1.0000000  0.0000000 )
                  ( -1.0000000  0.0000000  0.0000000 )


      isym = 12      90 deg rotation - cart. axis [0,-1,0]       

 cryst.   s(12) = (     0          0          1      )
                  (     0          1          0      )
                  (    -1          0          0      )

 cart.    s(12) = (  0.0000000  0.0000000 -1.0000000 )
                  (  0.0000000  1.0000000  0.0000000 )
                  (  1.0000000  0.0000000  0.0000000 )


      isym = 13     180 deg rotation - cart. axis [0,1,1]        

 cryst.   s(13) = (    -1          0          0      )
                  (     0          0          1      )
                  (     0          1          0      )

 cart.    s(13) = ( -1.0000000  0.0000000  0.0000000 )
                  (  0.0000000  0.0000000  1.0000000 )
                  (  0.0000000  1.0000000  0.0000000 )


      isym = 14     180 deg rotation - cart. axis [0,1,-1]       

 cryst.   s(14) = (    -1          0          0      )
                  (     0          0         -1      )
                  (     0         -1          0      )

 cart.    s(14) = ( -1.0000000  0.0000000  0.0000000 )
                  (  0.0000000  0.0000000 -1.0000000 )
                  (  0.0000000 -1.0000000  0.0000000 )


      isym = 15      90 deg rotation - cart. axis [-1,0,0]       

 cryst.   s(15) = (     1          0          0      )
                  (     0          0         -1      )
                  (     0          1          0      )

 cart.    s(15) = (  1.0000000  0.0000000  0.0000000 )
                  (  0.0000000  0.0000000  1.0000000 )
                  (  0.0000000 -1.0000000  0.0000000 )


      isym = 16      90 deg rotation - cart. axis [1,0,0]        

 cryst.   s(16) = (     1          0          0      )
                  (     0          0          1      )
                  (     0         -1          0      )

 cart.    s(16) = (  1.0000000  0.0000000  0.0000000 )
                  (  0.0000000  0.0000000 -1.0000000 )
                  (  0.0000000  1.0000000  0.0000000 )


      isym = 17     120 deg rotation - cart. axis [-1,-1,-1]     

 cryst.   s(17) = (     0          0          1      )
                  (     1          0          0      )
                  (     0          1          0      )

 cart.    s(17) = (  0.0000000  1.0000000  0.0000000 )
                  (  0.0000000  0.0000000  1.0000000 )
                  (  1.0000000  0.0000000  0.0000000 )


      isym = 18     120 deg rotation - cart. axis [-1,1,1]       

 cryst.   s(18) = (     0          0         -1      )
                  (    -1          0          0      )
                  (     0          1          0      )

 cart.    s(18) = (  0.0000000 -1.0000000  0.0000000 )
                  (  0.0000000  0.0000000  1.0000000 )
                  ( -1.0000000  0.0000000  0.0000000 )


      isym = 19     120 deg rotation - cart. axis [1,1,-1]       

 cryst.   s(19) = (     0          0         -1      )
                  (     1          0          0      )
                  (     0         -1          0      )

 cart.    s(19) = (  0.0000000  1.0000000  0.0000000 )
                  (  0.0000000  0.0000000 -1.0000000 )
                  ( -1.0000000  0.0000000  0.0000000 )


      isym = 20     120 deg rotation - cart. axis [1,-1,1]       

 cryst.   s(20) = (     0          0          1      )
                  (    -1          0          0      )
                  (     0         -1          0      )

 cart.    s(20) = (  0.0000000 -1.0000000  0.0000000 )
                  (  0.0000000  0.0000000 -1.0000000 )
                  (  1.0000000  0.0000000  0.0000000 )


      isym = 21     120 deg rotation - cart. axis [1,1,1]        

 cryst.   s(21) = (     0          1          0      )
                  (     0          0          1      )
                  (     1          0          0      )

 cart.    s(21) = (  0.0000000  0.0000000  1.0000000 )
                  (  1.0000000  0.0000000  0.0000000 )
                  (  0.0000000  1.0000000  0.0000000 )


      isym = 22     120 deg rotation - cart. axis [-1,1,-1]      

 cryst.   s(22) = (     0         -1          0      )
                  (     0          0         -1      )
                  (     1          0          0      )

 cart.    s(22) = (  0.0000000  0.0000000  1.0000000 )
                  ( -1.0000000  0.0000000  0.0000000 )
                  (  0.0000000 -1.0000000  0.0000000 )


      isym = 23     120 deg rotation - cart. axis [1,-1,-1]      

 cryst.   s(23) = (     0         -1          0      )
                  (     0          0          1      )
                  (    -1          0          0      )

 cart.    s(23) = (  0.0000000  0.0000000 -1.0000000 )
                  ( -1.0000000  0.0000000  0.0000000 )
                  (  0.0000000  1.0000000  0.0000000 )


      isym = 24     120 deg rotation - cart. axis [-1,-1,1]      

 cryst.   s(24) = (     0          1          0      )
                  (     0          0         -1      )
                  (    -1          0          0      )

 cart.    s(24) = (  0.0000000  0.0000000 -1.0000000 )
                  (  1.0000000  0.0000000  0.0000000 )
                  (  0.0000000 -1.0000000  0.0000000 )


      isym = 25     inversion                                    

 cryst.   s(25) = (    -1          0          0      )
                  (     0         -1          0      )
                  (     0          0         -1      )

 cart.    s(25) = ( -1.0000000  0.0000000  0.0000000 )
                  (  0.0000000 -1.0000000  0.0000000 )
                  (  0.0000000  0.0000000 -1.0000000 )


      isym = 26     inv. 180 deg rotation - cart. axis [0,0,1]   

 cryst.   s(26) = (     1          0          0      )
                  (     0          1          0      )
                  (     0          0         -1      )

 cart.    s(26) = (  1.0000000  0.0000000  0.0000000 )
                  (  0.0000000  1.0000000  0.0000000 )
                  (  0.0000000  0.0000000 -1.0000000 )


      isym = 27     inv. 180 deg rotation - cart. axis [0,1,0]   

 cryst.   s(27) = (     1          0          0      )
                  (     0         -1          0      )
                  (     0          0          1      )

 cart.    s(27) = (  1.0000000  0.0000000  0.0000000 )
                  (  0.0000000 -1.0000000  0.0000000 )
                  (  0.0000000  0.0000000  1.0000000 )


      isym = 28     inv. 180 deg rotation - cart. axis [1,0,0]   

 cryst.   s(28) = (    -1          0          0      )
                  (     0          1          0      )
                  (     0          0          1      )

 cart.    s(28) = ( -1.0000000  0.0000000  0.0000000 )
                  (  0.0000000  1.0000000  0.0000000 )
                  (  0.0000000  0.0000000  1.0000000 )


      isym = 29     inv. 180 deg rotation - cart. axis [1,1,0]   

 cryst.   s(29) = (     0         -1          0      )
                  (    -1          0          0      )
                  (     0          0          1      )

 cart.    s(29) = (  0.0000000 -1.0000000  0.0000000 )
                  ( -1.0000000  0.0000000  0.0000000 )
                  (  0.0000000  0.0000000  1.0000000 )


      isym = 30     inv. 180 deg rotation - cart. axis [1,-1,0]  

 cryst.   s(30) = (     0          1          0      )
                  (     1          0          0      )
                  (     0          0          1      )

 cart.    s(30) = (  0.0000000  1.0000000  0.0000000 )
                  (  1.0000000  0.0000000  0.0000000 )
                  (  0.0000000  0.0000000  1.0000000 )


      isym = 31     inv.  90 deg rotation - cart. axis [0,0,-1]  

 cryst.   s(31) = (     0          1          0      )
                  (    -1          0          0      )
                  (     0          0         -1      )

 cart.    s(31) = (  0.0000000 -1.0000000  0.0000000 )
                  (  1.0000000  0.0000000  0.0000000 )
                  (  0.0000000  0.0000000 -1.0000000 )


      isym = 32     inv.  90 deg rotation - cart. axis [0,0,1]   

 cryst.   s(32) = (     0         -1          0      )
                  (     1          0          0      )
                  (     0          0         -1      )

 cart.    s(32) = (  0.0000000  1.0000000  0.0000000 )
                  ( -1.0000000  0.0000000  0.0000000 )
                  (  0.0000000  0.0000000 -1.0000000 )


      isym = 33     inv. 180 deg rotation - cart. axis [1,0,1]   

 cryst.   s(33) = (     0          0         -1      )
                  (     0          1          0      )
                  (    -1          0          0      )

 cart.    s(33) = (  0.0000000  0.0000000 -1.0000000 )
                  (  0.0000000  1.0000000  0.0000000 )
                  ( -1.0000000  0.0000000  0.0000000 )


      isym = 34     inv. 180 deg rotation - cart. axis [-1,0,1]  

 cryst.   s(34) = (     0          0          1      )
                  (     0          1          0      )
                  (     1          0          0      )

 cart.    s(34) = (  0.0000000  0.0000000  1.0000000 )
                  (  0.0000000  1.0000000  0.0000000 )
                  (  1.0000000  0.0000000  0.0000000 )


      isym = 35     inv.  90 deg rotation - cart. axis [0,1,0]   

 cryst.   s(35) = (     0          0          1      )
                  (     0         -1          0      )
                  (    -1          0          0      )

 cart.    s(35) = (  0.0000000  0.0000000 -1.0000000 )
                  (  0.0000000 -1.0000000  0.0000000 )
                  (  1.0000000  0.0000000  0.0000000 )


      isym = 36     inv.  90 deg rotation - cart. axis [0,-1,0]  

 cryst.   s(36) = (     0          0         -1      )
                  (     0         -1          0      )
                  (     1          0          0      )

 cart.    s(36) = (  0.0000000  0.0000000  1.0000000 )
                  (  0.0000000 -1.0000000  0.0000000 )
                  ( -1.0000000  0.0000000  0.0000000 )


      isym = 37     inv. 180 deg rotation - cart. axis [0,1,1]   

 cryst.   s(37) = (     1          0          0      )
                  (     0          0         -1      )
                  (     0         -1          0      )

 cart.    s(37) = (  1.0000000  0.0000000  0.0000000 )
                  (  0.0000000  0.0000000 -1.0000000 )
                  (  0.0000000 -1.0000000  0.0000000 )


      isym = 38     inv. 180 deg rotation - cart. axis [0,1,-1]  

 cryst.   s(38) = (     1          0          0      )
                  (     0          0          1      )
                  (     0          1          0      )

 cart.    s(38) = (  1.0000000  0.0000000  0.0000000 )
                  (  0.0000000  0.0000000  1.0000000 )
                  (  0.0000000  1.0000000  0.0000000 )


      isym = 39     inv.  90 deg rotation - cart. axis [-1,0,0]  

 cryst.   s(39) = (    -1          0          0      )
                  (     0          0          1      )
                  (     0         -1          0      )

 cart.    s(39) = ( -1.0000000  0.0000000  0.0000000 )
                  (  0.0000000  0.0000000 -1.0000000 )
                  (  0.0000000  1.0000000  0.0000000 )


      isym = 40     inv.  90 deg rotation - cart. axis [1,0,0]   

 cryst.   s(40) = (    -1          0          0      )
                  (     0          0         -1      )
                  (     0          1          0      )

 cart.    s(40) = ( -1.0000000  0.0000000  0.0000000 )
                  (  0.0000000  0.0000000  1.0000000 )
                  (  0.0000000 -1.0000000  0.0000000 )


      isym = 41     inv. 120 deg rotation - cart. axis [-1,-1,-1]

 cryst.   s(41) = (     0          0         -1      )
                  (    -1          0          0      )
                  (     0         -1          0      )

 cart.    s(41) = (  0.0000000 -1.0000000  0.0000000 )
                  (  0.0000000  0.0000000 -1.0000000 )
                  ( -1.0000000  0.0000000  0.0000000 )


      isym = 42     inv. 120 deg rotation - cart. axis [-1,1,1]  

 cryst.   s(42) = (     0          0          1      )
                  (     1          0          0      )
                  (     0         -1          0      )

 cart.    s(42) = (  0.0000000  1.0000000  0.0000000 )
                  (  0.0000000  0.0000000 -1.0000000 )
                  (  1.0000000  0.0000000  0.0000000 )


      isym = 43     inv. 120 deg rotation - cart. axis [1,1,-1]  

 cryst.   s(43) = (     0          0          1      )
                  (    -1          0          0      )
                  (     0          1          0      )

 cart.    s(43) = (  0.0000000 -1.0000000  0.0000000 )
                  (  0.0000000  0.0000000  1.0000000 )
                  (  1.0000000  0.0000000  0.0000000 )


      isym = 44     inv. 120 deg rotation - cart. axis [1,-1,1]  

 cryst.   s(44) = (     0          0         -1      )
                  (     1          0          0      )
                  (     0          1          0      )

 cart.    s(44) = (  0.0000000  1.0000000  0.0000000 )
                  (  0.0000000  0.0000000  1.0000000 )
                  ( -1.0000000  0.0000000  0.0000000 )


      isym = 45     inv. 120 deg rotation - cart. axis [1,1,1]   

 cryst.   s(45) = (     0         -1          0      )
                  (     0          0         -1      )
                  (    -1          0          0      )

 cart.    s(45) = (  0.0000000  0.0000000 -1.0000000 )
                  ( -1.0000000  0.0000000  0.0000000 )
                  (  0.0000000 -1.0000000  0.0000000 )


      isym = 46     inv. 120 deg rotation - cart. axis [-1,1,-1] 

 cryst.   s(46) = (     0          1          0      )
                  (     0          0          1      )
                  (    -1          0          0      )

 cart.    s(46) = (  0.0000000  0.0000000 -1.0000000 )
                  (  1.0000000  0.0000000  0.0000000 )
                  (  0.0000000  1.0000000  0.0000000 )


      isym = 47     inv. 120 deg rotation - cart. axis [1,-1,-1] 

 cryst.   s(47) = (     0          1          0      )
                  (     0          0         -1      )
                  (     1          0          0      )

 cart.    s(47) = (  0.0000000  0.0000000  1.0000000 )
                  (  1.0000000  0.0000000  0.0000000 )
                  (  0.0000000 -1.0000000  0.0000000 )


      isym = 48     inv. 120 deg rotation - cart. axis [-1,-1,1] 

 cryst.   s(48) = (     0         -1          0      )
                  (     0          0          1      )
                  (     1          0          0      )

 cart.    s(48) = (  0.0000000  0.0000000  1.0000000 )
                  ( -1.0000000  0.0000000  0.0000000 )
                  (  0.0000000  1.0000000  0.0000000 )


   Cartesian axes

     site n.     atom                  positions (alat units)
         1           Mg  tau(   1) = (   0.2500000   0.7500000   0.2500000  )
         2           Mg  tau(   2) = (   0.7500000   0.7500000   0.2500000  )
         3           Mg  tau(   3) = (   0.2500000   0.2500000   0.7500000  )
         4           Mg  tau(   4) = (   0.7500000   0.2500000   0.7500000  )
         5           Mg  tau(   5) = (   0.7500000   0.7500000   0.7500000  )
         6           Mg  tau(   6) = (   0.2500000   0.7500000   0.7500000  )
         7           Mg  tau(   7) = (   0.7500000   0.2500000   0.2500000  )
         8           Mg  tau(   8) = (   0.2500000   0.2500000   0.2500000  )
         9           H   tau(   9) = (   0.0000000   0.0000000   0.7469588  )
        10           H   tau(  10) = (   0.0000000   0.7530412   0.5000000  )
        11           H   tau(  11) = (   0.7530412   0.0000000   0.5000000  )
        12           H   tau(  12) = (   0.0000000   0.0000000   0.2530412  )
        13           H   tau(  13) = (   0.0000000   0.7469588   0.0000000  )
        14           H   tau(  14) = (   0.2469588   0.0000000   0.5000000  )
        15           H   tau(  15) = (   0.0000000   0.5000000   0.2469588  )
        16           H   tau(  16) = (   0.0000000   0.2530412   0.0000000  )
        17           H   tau(  17) = (   0.7530412   0.5000000   0.0000000  )
        18           H   tau(  18) = (   0.0000000   0.5000000   0.7530412  )
        19           H   tau(  19) = (   0.0000000   0.2469588   0.5000000  )
        20           H   tau(  20) = (   0.2469588   0.5000000   0.0000000  )
        21           H   tau(  21) = (   0.5000000   0.0000000   0.2469588  )
        22           H   tau(  22) = (   0.5000000   0.7530412   0.0000000  )
        23           H   tau(  23) = (   0.2530412   0.0000000   0.0000000  )
        24           H   tau(  24) = (   0.5000000   0.0000000   0.7530412  )
        25           H   tau(  25) = (   0.5000000   0.7469588   0.5000000  )
        26           H   tau(  26) = (   0.7469588   0.0000000   0.0000000  )
        27           H   tau(  27) = (   0.5000000   0.5000000   0.7469588  )
        28           H   tau(  28) = (   0.5000000   0.2530412   0.5000000  )
        29           H   tau(  29) = (   0.2530412   0.5000000   0.5000000  )
        30           H   tau(  30) = (   0.5000000   0.5000000   0.2530412  )
        31           H   tau(  31) = (   0.5000000   0.2469588   0.0000000  )
        32           H   tau(  32) = (   0.7469588   0.5000000   0.5000000  )
        33           Ru  tau(  33) = (   0.0000000   0.0000000   0.0000000  )
        34           Ru  tau(  34) = (   0.0000000   0.5000000   0.5000000  )
        35           Ru  tau(  35) = (   0.5000000   0.0000000   0.5000000  )
        36           Ru  tau(  36) = (   0.5000000   0.5000000   0.0000000  )

   Crystallographic axes

     site n.     atom                  positions (cryst. coord.)
         1           Mg  tau(   1) = (  0.2500000  0.7500000  0.2500000  )
         2           Mg  tau(   2) = (  0.7500000  0.7500000  0.2500000  )
         3           Mg  tau(   3) = (  0.2500000  0.2500000  0.7500000  )
         4           Mg  tau(   4) = (  0.7500000  0.2500000  0.7500000  )
         5           Mg  tau(   5) = (  0.7500000  0.7500000  0.7500000  )
         6           Mg  tau(   6) = (  0.2500000  0.7500000  0.7500000  )
         7           Mg  tau(   7) = (  0.7500000  0.2500000  0.2500000  )
         8           Mg  tau(   8) = (  0.2500000  0.2500000  0.2500000  )
         9           H   tau(   9) = (  0.0000000  0.0000000  0.7469588  )
        10           H   tau(  10) = (  0.0000000  0.7530412  0.5000000  )
        11           H   tau(  11) = (  0.7530412  0.0000000  0.5000000  )
        12           H   tau(  12) = (  0.0000000  0.0000000  0.2530412  )
        13           H   tau(  13) = (  0.0000000  0.7469588  0.0000000  )
        14           H   tau(  14) = (  0.2469588  0.0000000  0.5000000  )
        15           H   tau(  15) = (  0.0000000  0.5000000  0.2469588  )
        16           H   tau(  16) = (  0.0000000  0.2530412  0.0000000  )
        17           H   tau(  17) = (  0.7530412  0.5000000  0.0000000  )
        18           H   tau(  18) = (  0.0000000  0.5000000  0.7530412  )
        19           H   tau(  19) = (  0.0000000  0.2469588  0.5000000  )
        20           H   tau(  20) = (  0.2469588  0.5000000  0.0000000  )
        21           H   tau(  21) = (  0.5000000  0.0000000  0.2469588  )
        22           H   tau(  22) = (  0.5000000  0.7530412  0.0000000  )
        23           H   tau(  23) = (  0.2530412  0.0000000  0.0000000  )
        24           H   tau(  24) = (  0.5000000  0.0000000  0.7530412  )
        25           H   tau(  25) = (  0.5000000  0.7469588  0.5000000  )
        26           H   tau(  26) = (  0.7469588  0.0000000  0.0000000  )
        27           H   tau(  27) = (  0.5000000  0.5000000  0.7469588  )
        28           H   tau(  28) = (  0.5000000  0.2530412  0.5000000  )
        29           H   tau(  29) = (  0.2530412  0.5000000  0.5000000  )
        30           H   tau(  30) = (  0.5000000  0.5000000  0.2530412  )
        31           H   tau(  31) = (  0.5000000  0.2469588  0.0000000  )
        32           H   tau(  32) = (  0.7469588  0.5000000  0.5000000  )
        33           Ru  tau(  33) = (  0.0000000  0.0000000  0.0000000  )
        34           Ru  tau(  34) = (  0.0000000  0.5000000  0.5000000  )
        35           Ru  tau(  35) = (  0.5000000  0.0000000  0.5000000  )
        36           Ru  tau(  36) = (  0.5000000  0.5000000  0.0000000  )

     number of k points=    56  Gaussian smearing, width (Ry)=  0.0200
                       cart. coord. in units 2pi/alat
        k(    1) = (   0.0000000   0.0000000   0.0000000), wk =   0.0020000
        k(    2) = (   0.0000000   0.0000000   0.1000000), wk =   0.0120000
        k(    3) = (   0.0000000   0.0000000   0.2000000), wk =   0.0120000
        k(    4) = (   0.0000000   0.0000000   0.3000000), wk =   0.0120000
        k(    5) = (   0.0000000   0.0000000   0.4000000), wk =   0.0120000
        k(    6) = (   0.0000000   0.0000000  -0.5000000), wk =   0.0060000
        k(    7) = (   0.0000000   0.1000000   0.1000000), wk =   0.0240000
        k(    8) = (   0.0000000   0.1000000   0.2000000), wk =   0.0480000
        k(    9) = (   0.0000000   0.1000000   0.3000000), wk =   0.0480000
        k(   10) = (   0.0000000   0.1000000   0.4000000), wk =   0.0480000
        k(   11) = (   0.0000000   0.1000000  -0.5000000), wk =   0.0240000
        k(   12) = (   0.0000000   0.2000000   0.2000000), wk =   0.0240000
        k(   13) = (   0.0000000   0.2000000   0.3000000), wk =   0.0480000
        k(   14) = (   0.0000000   0.2000000   0.4000000), wk =   0.0480000
        k(   15) = (   0.0000000   0.2000000  -0.5000000), wk =   0.0240000
        k(   16) = (   0.0000000   0.3000000   0.3000000), wk =   0.0240000
        k(   17) = (   0.0000000   0.3000000   0.4000000), wk =   0.0480000
        k(   18) = (   0.0000000   0.3000000  -0.5000000), wk =   0.0240000
        k(   19) = (   0.0000000   0.4000000   0.4000000), wk =   0.0240000
        k(   20) = (   0.0000000   0.4000000  -0.5000000), wk =   0.0240000
        k(   21) = (   0.0000000  -0.5000000  -0.5000000), wk =   0.0060000
        k(   22) = (   0.1000000   0.1000000   0.1000000), wk =   0.0160000
        k(   23) = (   0.1000000   0.1000000   0.2000000), wk =   0.0480000
        k(   24) = (   0.1000000   0.1000000   0.3000000), wk =   0.0480000
        k(   25) = (   0.1000000   0.1000000   0.4000000), wk =   0.0480000
        k(   26) = (   0.1000000   0.1000000  -0.5000000), wk =   0.0240000
        k(   27) = (   0.1000000   0.2000000   0.2000000), wk =   0.0480000
        k(   28) = (   0.1000000   0.2000000   0.3000000), wk =   0.0960000
        k(   29) = (   0.1000000   0.2000000   0.4000000), wk =   0.0960000
        k(   30) = (   0.1000000   0.2000000  -0.5000000), wk =   0.0480000
        k(   31) = (   0.1000000   0.3000000   0.3000000), wk =   0.0480000
        k(   32) = (   0.1000000   0.3000000   0.4000000), wk =   0.0960000
        k(   33) = (   0.1000000   0.3000000  -0.5000000), wk =   0.0480000
        k(   34) = (   0.1000000   0.4000000   0.4000000), wk =   0.0480000
        k(   35) = (   0.1000000   0.4000000  -0.5000000), wk =   0.0480000
        k(   36) = (   0.1000000  -0.5000000  -0.5000000), wk =   0.0120000
        k(   37) = (   0.2000000   0.2000000   0.2000000), wk =   0.0160000
        k(   38) = (   0.2000000   0.2000000   0.3000000), wk =   0.0480000
        k(   39) = (   0.2000000   0.2000000   0.4000000), wk =   0.0480000
        k(   40) = (   0.2000000   0.2000000  -0.5000000), wk =   0.0240000
        k(   41) = (   0.2000000   0.3000000   0.3000000), wk =   0.0480000
        k(   42) = (   0.2000000   0.3000000   0.4000000), wk =   0.0960000
        k(   43) = (   0.2000000   0.3000000  -0.5000000), wk =   0.0480000
        k(   44) = (   0.2000000   0.4000000   0.4000000), wk =   0.0480000
        k(   45) = (   0.2000000   0.4000000  -0.5000000), wk =   0.0480000
        k(   46) = (   0.2000000  -0.5000000  -0.5000000), wk =   0.0120000
        k(   47) = (   0.3000000   0.3000000   0.3000000), wk =   0.0160000
        k(   48) = (   0.3000000   0.3000000   0.4000000), wk =   0.0480000
        k(   49) = (   0.3000000   0.3000000  -0.5000000), wk =   0.0240000
        k(   50) = (   0.3000000   0.4000000   0.4000000), wk =   0.0480000
        k(   51) = (   0.3000000   0.4000000  -0.5000000), wk =   0.0480000
        k(   52) = (   0.3000000  -0.5000000  -0.5000000), wk =   0.0120000
        k(   53) = (   0.4000000   0.4000000   0.4000000), wk =   0.0160000
        k(   54) = (   0.4000000   0.4000000  -0.5000000), wk =   0.0240000
        k(   55) = (   0.4000000  -0.5000000  -0.5000000), wk =   0.0120000
        k(   56) = (  -0.5000000  -0.5000000  -0.5000000), wk =   0.0020000

                       cryst. coord.
        k(    1) = (   0.0000000   0.0000000   0.0000000), wk =   0.0020000
        k(    2) = (   0.0000000   0.0000000   0.1000000), wk =   0.0120000
        k(    3) = (   0.0000000   0.0000000   0.2000000), wk =   0.0120000
        k(    4) = (   0.0000000   0.0000000   0.3000000), wk =   0.0120000
        k(    5) = (   0.0000000   0.0000000   0.4000000), wk =   0.0120000
        k(    6) = (   0.0000000   0.0000000  -0.5000000), wk =   0.0060000
        k(    7) = (   0.0000000   0.1000000   0.1000000), wk =   0.0240000
        k(    8) = (   0.0000000   0.1000000   0.2000000), wk =   0.0480000
        k(    9) = (   0.0000000   0.1000000   0.3000000), wk =   0.0480000
        k(   10) = (   0.0000000   0.1000000   0.4000000), wk =   0.0480000
        k(   11) = (   0.0000000   0.1000000  -0.5000000), wk =   0.0240000
        k(   12) = (   0.0000000   0.2000000   0.2000000), wk =   0.0240000
        k(   13) = (   0.0000000   0.2000000   0.3000000), wk =   0.0480000
        k(   14) = (   0.0000000   0.2000000   0.4000000), wk =   0.0480000
        k(   15) = (   0.0000000   0.2000000  -0.5000000), wk =   0.0240000
        k(   16) = (   0.0000000   0.3000000   0.3000000), wk =   0.0240000
        k(   17) = (   0.0000000   0.3000000   0.4000000), wk =   0.0480000
        k(   18) = (   0.0000000   0.3000000  -0.5000000), wk =   0.0240000
        k(   19) = (   0.0000000   0.4000000   0.4000000), wk =   0.0240000
        k(   20) = (   0.0000000   0.4000000  -0.5000000), wk =   0.0240000
        k(   21) = (   0.0000000  -0.5000000  -0.5000000), wk =   0.0060000
        k(   22) = (   0.1000000   0.1000000   0.1000000), wk =   0.0160000
        k(   23) = (   0.1000000   0.1000000   0.2000000), wk =   0.0480000
        k(   24) = (   0.1000000   0.1000000   0.3000000), wk =   0.0480000
        k(   25) = (   0.1000000   0.1000000   0.4000000), wk =   0.0480000
        k(   26) = (   0.1000000   0.1000000  -0.5000000), wk =   0.0240000
        k(   27) = (   0.1000000   0.2000000   0.2000000), wk =   0.0480000
        k(   28) = (   0.1000000   0.2000000   0.3000000), wk =   0.0960000
        k(   29) = (   0.1000000   0.2000000   0.4000000), wk =   0.0960000
        k(   30) = (   0.1000000   0.2000000  -0.5000000), wk =   0.0480000
        k(   31) = (   0.1000000   0.3000000   0.3000000), wk =   0.0480000
        k(   32) = (   0.1000000   0.3000000   0.4000000), wk =   0.0960000
        k(   33) = (   0.1000000   0.3000000  -0.5000000), wk =   0.0480000
        k(   34) = (   0.1000000   0.4000000   0.4000000), wk =   0.0480000
        k(   35) = (   0.1000000   0.4000000  -0.5000000), wk =   0.0480000
        k(   36) = (   0.1000000  -0.5000000  -0.5000000), wk =   0.0120000
        k(   37) = (   0.2000000   0.2000000   0.2000000), wk =   0.0160000
        k(   38) = (   0.2000000   0.2000000   0.3000000), wk =   0.0480000
        k(   39) = (   0.2000000   0.2000000   0.4000000), wk =   0.0480000
        k(   40) = (   0.2000000   0.2000000  -0.5000000), wk =   0.0240000
        k(   41) = (   0.2000000   0.3000000   0.3000000), wk =   0.0480000
        k(   42) = (   0.2000000   0.3000000   0.4000000), wk =   0.0960000
        k(   43) = (   0.2000000   0.3000000  -0.5000000), wk =   0.0480000
        k(   44) = (   0.2000000   0.4000000   0.4000000), wk =   0.0480000
        k(   45) = (   0.2000000   0.4000000  -0.5000000), wk =   0.0480000
        k(   46) = (   0.2000000  -0.5000000  -0.5000000), wk =   0.0120000
        k(   47) = (   0.3000000   0.3000000   0.3000000), wk =   0.0160000
        k(   48) = (   0.3000000   0.3000000   0.4000000), wk =   0.0480000
        k(   49) = (   0.3000000   0.3000000  -0.5000000), wk =   0.0240000
        k(   50) = (   0.3000000   0.4000000   0.4000000), wk =   0.0480000
        k(   51) = (   0.3000000   0.4000000  -0.5000000), wk =   0.0480000
        k(   52) = (   0.3000000  -0.5000000  -0.5000000), wk =   0.0120000
        k(   53) = (   0.4000000   0.4000000   0.4000000), wk =   0.0160000
        k(   54) = (   0.4000000   0.4000000  -0.5000000), wk =   0.0240000
        k(   55) = (   0.4000000  -0.5000000  -0.5000000), wk =   0.0120000
        k(   56) = (  -0.5000000  -0.5000000  -0.5000000), wk =   0.0020000

     Dense  grid:  1160031 G-vectors     FFT dimensions: ( 135, 135, 135)

     Smooth grid:   223135 G-vectors     FFT dimensions: (  75,  75,  75)

     Dynamical RAM for                 wfc:       0.82 MB

     Dynamical RAM for     wfc (w. buffer):      23.92 MB

     Dynamical RAM for           str. fact:       1.66 MB

     Dynamical RAM for           local pot:       0.00 MB

     Dynamical RAM for          nlocal pot:       2.45 MB

     Dynamical RAM for                qrad:       7.91 MB

     Dynamical RAM for          rho,v,vnew:       3.75 MB

     Dynamical RAM for               rhoin:       1.25 MB

     Dynamical RAM for            rho*nmix:       8.85 MB

     Dynamical RAM for           G-vectors:       2.13 MB

     Dynamical RAM for          h,s,v(r/c):       0.70 MB

     Dynamical RAM for          <psi|beta>:       0.17 MB

     Dynamical RAM for                 psi:       1.65 MB

     Dynamical RAM for                hpsi:       1.65 MB

     Dynamical RAM for                spsi:       1.65 MB

     Dynamical RAM for      wfcinit/wfcrot:       3.78 MB

     Dynamical RAM for           addusdens:      58.36 MB

     Dynamical RAM for          addusforce:      71.18 MB

     Dynamical RAM for         addusstress:      55.73 MB

     Estimated static dynamical RAM per process >      48.75 MB

     Estimated max dynamical RAM per process >     128.77 MB

     Estimated total dynamical RAM >       7.77 GB

     Initial potential from superposition of free atoms

     starting charge     103.9896, renormalised to     104.0000
     Starting wfcs are  128 randomized atomic wfcs
     Checking if some PAW data can be deallocated... 
       PAW data deallocated on   48 nodes for type:  2
       PAW data deallocated on   60 nodes for type:  3

     total cpu time spent up to now is        6.5 secs

     Self-consistent Calculation

     iteration #  1     ecut=    90.00 Ry     beta= 0.40
     Davidson diagonalization with overlap

---- Real-time Memory Report at c_bands before calling an iterative solver
           134 MiB given to the printing process from OS
             0 MiB allocation reported by mallinfo(arena+hblkhd)
        218882 MiB available memory on the node where the printing process lives
------------------
     ethr =  1.00E-02,  avg # of iterations =  2.4

     total cpu time spent up to now is       13.3 secs

     total energy              =   -1998.57585449 Ry
     estimated scf accuracy    <       1.37455004 Ry

     iteration #  2     ecut=    90.00 Ry     beta= 0.40
     Davidson diagonalization with overlap

---- Real-time Memory Report at c_bands before calling an iterative solver
           180 MiB given to the printing process from OS
             0 MiB allocation reported by mallinfo(arena+hblkhd)
        221109 MiB available memory on the node where the printing process lives
------------------
     ethr =  1.32E-03,  avg # of iterations =  2.0

     total cpu time spent up to now is       19.2 secs

     total energy              =   -1998.50718367 Ry
     estimated scf accuracy    <       0.33524906 Ry

     iteration #  3     ecut=    90.00 Ry     beta= 0.40
     Davidson diagonalization with overlap

---- Real-time Memory Report at c_bands before calling an iterative solver
           181 MiB given to the printing process from OS
             0 MiB allocation reported by mallinfo(arena+hblkhd)
        224245 MiB available memory on the node where the printing process lives
------------------
     ethr =  3.22E-04,  avg # of iterations =  2.8

     total cpu time spent up to now is       26.3 secs

     total energy              =   -1998.56769858 Ry
     estimated scf accuracy    <       0.00423054 Ry

     iteration #  4     ecut=    90.00 Ry     beta= 0.40
     Davidson diagonalization with overlap

---- Real-time Memory Report at c_bands before calling an iterative solver
           181 MiB given to the printing process from OS
             0 MiB allocation reported by mallinfo(arena+hblkhd)
        224196 MiB available memory on the node where the printing process lives
------------------
     c_bands:  2 eigenvalues not converged
     c_bands:  1 eigenvalues not converged
     c_bands:  2 eigenvalues not converged
     c_bands:  3 eigenvalues not converged
     c_bands:  1 eigenvalues not converged
     c_bands:  1 eigenvalues not converged
     c_bands:  2 eigenvalues not converged
     c_bands:  1 eigenvalues not converged
     c_bands:  2 eigenvalues not converged
     c_bands:  1 eigenvalues not converged
     c_bands:  3 eigenvalues not converged
     c_bands:  2 eigenvalues not converged
     c_bands:  1 eigenvalues not converged
     ethr =  4.07E-06,  avg # of iterations = 16.2

     total cpu time spent up to now is       44.3 secs

     total energy              =   -1998.57456849 Ry
     estimated scf accuracy    <       0.00236697 Ry

     iteration #  5     ecut=    90.00 Ry     beta= 0.40
     Davidson diagonalization with overlap

---- Real-time Memory Report at c_bands before calling an iterative solver
           182 MiB given to the printing process from OS
             0 MiB allocation reported by mallinfo(arena+hblkhd)
        218142 MiB available memory on the node where the printing process lives
------------------
     c_bands:  1 eigenvalues not converged
     c_bands:  1 eigenvalues not converged
     c_bands:  1 eigenvalues not converged
     ethr =  2.28E-06,  avg # of iterations =  9.6

     total cpu time spent up to now is       54.2 secs

     total energy              =   -1998.57496850 Ry
     estimated scf accuracy    <       0.00063248 Ry

     iteration #  6     ecut=    90.00 Ry     beta= 0.40
     Davidson diagonalization with overlap

---- Real-time Memory Report at c_bands before calling an iterative solver
           183 MiB given to the printing process from OS
             0 MiB allocation reported by mallinfo(arena+hblkhd)
        218856 MiB available memory on the node where the printing process lives
------------------
     ethr =  6.08E-07,  avg # of iterations =  6.7

     total cpu time spent up to now is       63.8 secs

     total energy              =   -1998.57499640 Ry
     estimated scf accuracy    <       0.00067005 Ry

     iteration #  7     ecut=    90.00 Ry     beta= 0.40
     Davidson diagonalization with overlap

---- Real-time Memory Report at c_bands before calling an iterative solver
           184 MiB given to the printing process from OS
             0 MiB allocation reported by mallinfo(arena+hblkhd)
        220997 MiB available memory on the node where the printing process lives
------------------
     c_bands:  2 eigenvalues not converged
     ethr =  6.08E-07,  avg # of iterations =  2.3

     total cpu time spent up to now is       70.2 secs

     total energy              =   -1998.57505081 Ry
     estimated scf accuracy    <       0.00002334 Ry

     iteration #  8     ecut=    90.00 Ry     beta= 0.40
     Davidson diagonalization with overlap

---- Real-time Memory Report at c_bands before calling an iterative solver
           184 MiB given to the printing process from OS
             0 MiB allocation reported by mallinfo(arena+hblkhd)
        219327 MiB available memory on the node where the printing process lives
------------------
     c_bands:  2 eigenvalues not converged
     ethr =  2.24E-08,  avg # of iterations =  9.9

     total cpu time spent up to now is       83.3 secs

     total energy              =   -1998.57508062 Ry
     estimated scf accuracy    <       0.00000966 Ry

     iteration #  9     ecut=    90.00 Ry     beta= 0.40
     Davidson diagonalization with overlap

---- Real-time Memory Report at c_bands before calling an iterative solver
           185 MiB given to the printing process from OS
             0 MiB allocation reported by mallinfo(arena+hblkhd)
        221482 MiB available memory on the node where the printing process lives
------------------
     ethr =  9.29E-09,  avg # of iterations =  5.5

     total cpu time spent up to now is       92.1 secs

     total energy              =   -1998.57508471 Ry
     estimated scf accuracy    <       0.00001024 Ry

     iteration # 10     ecut=    90.00 Ry     beta= 0.40
     Davidson diagonalization with overlap

---- Real-time Memory Report at c_bands before calling an iterative solver
           185 MiB given to the printing process from OS
             0 MiB allocation reported by mallinfo(arena+hblkhd)
        224399 MiB available memory on the node where the printing process lives
------------------
     ethr =  9.29E-09,  avg # of iterations =  1.1

     total cpu time spent up to now is       97.2 secs

     total energy              =   -1998.57508191 Ry
     estimated scf accuracy    <       0.00000659 Ry

     iteration # 11     ecut=    90.00 Ry     beta= 0.40
     Davidson diagonalization with overlap

---- Real-time Memory Report at c_bands before calling an iterative solver
           185 MiB given to the printing process from OS
             0 MiB allocation reported by mallinfo(arena+hblkhd)
        222242 MiB available memory on the node where the printing process lives
------------------
     ethr =  6.34E-09,  avg # of iterations =  4.5

     total cpu time spent up to now is      105.2 secs

     total energy              =   -1998.57508338 Ry
     estimated scf accuracy    <       0.00000258 Ry

     iteration # 12     ecut=    90.00 Ry     beta= 0.40
     Davidson diagonalization with overlap

---- Real-time Memory Report at c_bands before calling an iterative solver
           186 MiB given to the printing process from OS
             0 MiB allocation reported by mallinfo(arena+hblkhd)
        218043 MiB available memory on the node where the printing process lives
------------------
     ethr =  2.48E-09,  avg # of iterations =  2.6

     total cpu time spent up to now is      112.0 secs

     total energy              =   -1998.57508339 Ry
     estimated scf accuracy    <       0.00000141 Ry

     iteration # 13     ecut=    90.00 Ry     beta= 0.40
     Davidson diagonalization with overlap

---- Real-time Memory Report at c_bands before calling an iterative solver
           186 MiB given to the printing process from OS
             0 MiB allocation reported by mallinfo(arena+hblkhd)
        218046 MiB available memory on the node where the printing process lives
------------------
     ethr =  1.35E-09,  avg # of iterations =  4.4

     total cpu time spent up to now is      119.5 secs

     total energy              =   -1998.57508365 Ry
     estimated scf accuracy    <       0.00000032 Ry

     iteration # 14     ecut=    90.00 Ry     beta= 0.40
     Davidson diagonalization with overlap

---- Real-time Memory Report at c_bands before calling an iterative solver
           186 MiB given to the printing process from OS
             0 MiB allocation reported by mallinfo(arena+hblkhd)
        224409 MiB available memory on the node where the printing process lives
------------------
     ethr =  3.07E-10,  avg # of iterations =  6.2

     total cpu time spent up to now is      128.9 secs

     total energy              =   -1998.57508362 Ry
     estimated scf accuracy    <       0.00000039 Ry

     iteration # 15     ecut=    90.00 Ry     beta= 0.40
     Davidson diagonalization with overlap

---- Real-time Memory Report at c_bands before calling an iterative solver
           186 MiB given to the printing process from OS
             0 MiB allocation reported by mallinfo(arena+hblkhd)
        219077 MiB available memory on the node where the printing process lives
------------------
     ethr =  3.07E-10,  avg # of iterations =  4.3

     total cpu time spent up to now is      136.3 secs

     total energy              =   -1998.57508371 Ry
     estimated scf accuracy    <          8.5E-09 Ry

     iteration # 16     ecut=    90.00 Ry     beta= 0.40
     Davidson diagonalization with overlap

---- Real-time Memory Report at c_bands before calling an iterative solver
           186 MiB given to the printing process from OS
             0 MiB allocation reported by mallinfo(arena+hblkhd)
        218054 MiB available memory on the node where the printing process lives
------------------
     ethr =  8.20E-12,  avg # of iterations = 14.2

     total cpu time spent up to now is      157.5 secs

     total energy              =   -1998.57508373 Ry
     estimated scf accuracy    <       0.00000011 Ry

     iteration # 17     ecut=    90.00 Ry     beta= 0.40
     Davidson diagonalization with overlap

---- Real-time Memory Report at c_bands before calling an iterative solver
           186 MiB given to the printing process from OS
             0 MiB allocation reported by mallinfo(arena+hblkhd)
        218056 MiB available memory on the node where the printing process lives
------------------
     ethr =  8.20E-12,  avg # of iterations =  4.0

     total cpu time spent up to now is      165.0 secs

     total energy              =   -1998.57508374 Ry
     estimated scf accuracy    <       0.00000006 Ry

     iteration # 18     ecut=    90.00 Ry     beta= 0.40
     Davidson diagonalization with overlap

---- Real-time Memory Report at c_bands before calling an iterative solver
           187 MiB given to the printing process from OS
             0 MiB allocation reported by mallinfo(arena+hblkhd)
        218037 MiB available memory on the node where the printing process lives
------------------
     ethr =  8.20E-12,  avg # of iterations =  4.0

     total cpu time spent up to now is      172.4 secs

     total energy              =   -1998.57508373 Ry
     estimated scf accuracy    <       0.00000010 Ry

     iteration # 19     ecut=    90.00 Ry     beta= 0.40
     Davidson diagonalization with overlap

---- Real-time Memory Report at c_bands before calling an iterative solver
           187 MiB given to the printing process from OS
             0 MiB allocation reported by mallinfo(arena+hblkhd)
        218039 MiB available memory on the node where the printing process lives
------------------
     ethr =  8.20E-12,  avg # of iterations =  4.2

     total cpu time spent up to now is      179.8 secs

     total energy              =   -1998.57508374 Ry
     estimated scf accuracy    <       0.00000004 Ry

     iteration # 20     ecut=    90.00 Ry     beta= 0.40
     Davidson diagonalization with overlap

---- Real-time Memory Report at c_bands before calling an iterative solver
           187 MiB given to the printing process from OS
             0 MiB allocation reported by mallinfo(arena+hblkhd)
        218038 MiB available memory on the node where the printing process lives
------------------
     ethr =  8.20E-12,  avg # of iterations =  1.0

     total cpu time spent up to now is      185.2 secs

     total energy              =   -1998.57508373 Ry
     estimated scf accuracy    <       0.00000004 Ry

     iteration # 21     ecut=    90.00 Ry     beta= 0.40
     Davidson diagonalization with overlap

---- Real-time Memory Report at c_bands before calling an iterative solver
           187 MiB given to the printing process from OS
             0 MiB allocation reported by mallinfo(arena+hblkhd)
        218038 MiB available memory on the node where the printing process lives
------------------
     ethr =  8.20E-12,  avg # of iterations =  2.1

     total cpu time spent up to now is      191.4 secs

     total energy              =   -1998.57508373 Ry
     estimated scf accuracy    <       0.00000001 Ry

     iteration # 22     ecut=    90.00 Ry     beta= 0.40
     Davidson diagonalization with overlap

---- Real-time Memory Report at c_bands before calling an iterative solver
           187 MiB given to the printing process from OS
             0 MiB allocation reported by mallinfo(arena+hblkhd)
        218039 MiB available memory on the node where the printing process lives
------------------
     ethr =  8.20E-12,  avg # of iterations =  1.0

     total cpu time spent up to now is      196.8 secs

     total energy              =   -1998.57508373 Ry
     estimated scf accuracy    <       0.00000002 Ry

     iteration # 23     ecut=    90.00 Ry     beta= 0.40
     Davidson diagonalization with overlap

---- Real-time Memory Report at c_bands before calling an iterative solver
           187 MiB given to the printing process from OS
             0 MiB allocation reported by mallinfo(arena+hblkhd)
        218038 MiB available memory on the node where the printing process lives
------------------
     ethr =  8.20E-12,  avg # of iterations =  1.0

     total cpu time spent up to now is      202.2 secs

     total energy              =   -1998.57508373 Ry
     estimated scf accuracy    <       0.00000001 Ry

     iteration # 24     ecut=    90.00 Ry     beta= 0.40
     Davidson diagonalization with overlap

---- Real-time Memory Report at c_bands before calling an iterative solver
           187 MiB given to the printing process from OS
             0 MiB allocation reported by mallinfo(arena+hblkhd)
        218037 MiB available memory on the node where the printing process lives
------------------
     ethr =  8.20E-12,  avg # of iterations =  1.7

     total cpu time spent up to now is      207.9 secs

     End of self-consistent calculation

          k = 0.0000 0.0000 0.0000 ( 28017 PWs)   bands (ev):

   -65.0574 -65.0573 -65.0573 -65.0573 -35.1698 -35.1698 -35.1698 -35.1687
   -35.1687 -35.1687 -35.1687 -35.1687 -35.1687 -35.1681 -35.1681 -35.1681
    -2.7095  -0.6224  -0.6224  -0.6224   1.3510   1.3510   1.3510   1.6063
     1.6063   1.6063   1.8614   1.8614   2.1996   2.1996   2.1996   3.1008
     3.1008   3.1008   3.1008   3.1008   3.1008   3.8345   3.8345   3.8345
     4.4567   4.4567   4.4567   4.5116   4.5116   4.5116   5.4551   5.4551
     5.4551   5.4551   5.4551   5.4551   8.4623   8.4623   8.4623  10.7789
    10.7789  10.7789  12.2784  12.2906  12.2907  12.2907

     occupation numbers 
     1.0000   1.0000   1.0000   1.0000   1.0000   1.0000   1.0000   1.0000
     1.0000   1.0000   1.0000   1.0000   1.0000   1.0000   1.0000   1.0000
     1.0000   1.0000   1.0000   1.0000   1.0000   1.0000   1.0000   1.0000
     1.0000   1.0000   1.0000   1.0000   1.0000   1.0000   1.0000   1.0000
     1.0000   1.0000   1.0000   1.0000   1.0000   1.0000   1.0000   1.0000
     1.0000   1.0000   1.0000   1.0000   1.0000   1.0000   1.0000   1.0000
     1.0000   1.0000   1.0000   1.0000   0.0000   0.0000   0.0000   0.0000
     0.0000   0.0000   0.0000   0.0000   0.0000   0.0000

          k = 0.0000 0.0000 0.1000 ( 27937 PWs)   bands (ev):

   -65.0574 -65.0573 -65.0573 -65.0573 -35.1698 -35.1698 -35.1698 -35.1688
   -35.1688 -35.1687 -35.1687 -35.1687 -35.1687 -35.1682 -35.1682 -35.1682
    -2.6750  -0.6968  -0.5902  -0.5902   1.0991   1.3738   1.3738   1.5225
     1.5225   1.8181   1.8692   1.9841   2.1283   2.1283   2.1908   2.9599
     2.9599   3.1156   3.1156   3.2291   3.2291   3.8495   3.9802   3.9802
     4.2517   4.2517   4.4537   4.4931   4.7122   4.7122   5.4426   5.4426
     5.4546   5.4546   5.4551   5.4551   8.4617   8.5375   8.5375  10.7876
    10.7973  10.7973  11.9089  12.0467  12.2548  12.2548

     occupation numbers 
     1.0000   1.0000   1.0000   1.0000   1.0000   1.0000   1.0000   1.0000
     1.0000   1.0000   1.0000   1.0000   1.0000   1.0000   1.0000   1.0000
     1.0000   1.0000   1.0000   1.0000   1.0000   1.0000   1.0000   1.0000
     1.0000   1.0000   1.0000   1.0000   1.0000   1.0000   1.0000   1.0000
     1.0000   1.0000   1.0000   1.0000   1.0000   1.0000   1.0000   1.0000
     1.0000   1.0000   1.0000   1.0000   1.0000   1.0000   1.0000   1.0000
     1.0000   1.0000   1.0000   1.0000   0.0000   0.0000   0.0000   0.0000
     0.0000   0.0000   0.0000   0.0000   0.0000   0.0000

          k = 0.0000 0.0000 0.2000 ( 27914 PWs)   bands (ev):

   -65.0574 -65.0573 -65.0573 -65.0573 -35.1697 -35.1697 -35.1697 -35.1688
   -35.1688 -35.1687 -35.1687 -35.1687 -35.1687 -35.1683 -35.1682 -35.1682
    -2.5722  -0.9114  -0.4951  -0.4951   0.9204   1.2780   1.2780   1.4418
     1.4418   1.6979   1.8920   2.0429   2.0429   2.1654   2.5234   2.6893
     2.6893   3.1599   3.1599   3.4763   3.4763   3.8931   4.0283   4.0283
     4.2624   4.2624   4.4343   4.4400   4.9207   4.9207   5.4026   5.4026
     5.4507   5.4507   5.4552   5.4552   8.4745   8.7623   8.7623  10.8143
    10.8589  10.8589  11.1263  11.6040  12.2197  12.6445

     occupation numbers 
     1.0000   1.0000   1.0000   1.0000   1.0000   1.0000   1.0000   1.0000
     1.0000   1.0000   1.0000   1.0000   1.0000   1.0000   1.0000   1.0000
     1.0000   1.0000   1.0000   1.0000   1.0000   1.0000   1.0000   1.0000
     1.0000   1.0000   1.0000   1.0000   1.0000   1.0000   1.0000   1.0000
     1.0000   1.0000   1.0000   1.0000   1.0000   1.0000   1.0000   1.0000
     1.0000   1.0000   1.0000   1.0000   1.0000   1.0000   1.0000   1.0000
     1.0000   1.0000   1.0000   1.0000   0.0000   0.0000   0.0000   0.0000
     0.0000   0.0000   0.0000   0.0000   0.0000   0.0000

          k = 0.0000 0.0000 0.3000 ( 27926 PWs)   bands (ev):

   -65.0573 -65.0573 -65.0573 -65.0573 -35.1696 -35.1696 -35.1695 -35.1690
   -35.1690 -35.1687 -35.1687 -35.1686 -35.1686 -35.1685 -35.1683 -35.1683
    -2.4032  -1.2211  -0.3432  -0.3432   0.8974   0.9523   0.9523   1.5250
     1.5544   1.5544   1.9278   2.0046   2.0046   2.1264   2.4054   2.4054
     3.0706   3.2340   3.2340   3.7013   3.7013   3.8197   3.8197   3.9624
     4.3591   4.3702   4.5576   4.5576   5.1005   5.1005   5.3288   5.3288
     5.4372   5.4372   5.4553   5.4553   8.5400   9.1272   9.1272  10.2809
    10.8617  10.9806  10.9806  11.3626  12.2636  12.2636

     occupation numbers 
     1.0000   1.0000   1.0000   1.0000   1.0000   1.0000   1.0000   1.0000
     1.0000   1.0000   1.0000   1.0000   1.0000   1.0000   1.0000   1.0000
     1.0000   1.0000   1.0000   1.0000   1.0000   1.0000   1.0000   1.0000
     1.0000   1.0000   1.0000   1.0000   1.0000   1.0000   1.0000   1.0000
     1.0000   1.0000   1.0000   1.0000   1.0000   1.0000   1.0000   1.0000
     1.0000   1.0000   1.0000   1.0000   1.0000   1.0000   1.0000   1.0000
     1.0000   1.0000   1.0000   1.0000   0.0000   0.0000   0.0000   0.0000
     0.0000   0.0000   0.0000   0.0000   0.0000   0.0000

          k = 0.0000 0.0000 0.4000 ( 27898 PWs)   bands (ev):

   -65.0573 -65.0573 -65.0573 -65.0573 -35.1695 -35.1695 -35.1692 -35.1691
   -35.1691 -35.1687 -35.1687 -35.1687 -35.1685 -35.1685 -35.1683 -35.1683
    -2.1724  -1.5618  -0.1553  -0.1553   0.6393   0.6393   0.9849   1.3291
     1.7101   1.7101   1.9736   1.9901   1.9901   2.0780   2.1405   2.1405
     3.3379   3.3379   3.5655   3.6326   3.6326   3.8487   3.8487   4.0519
     4.2229   4.2603   4.8245   4.8245   5.2121   5.2121   5.2422   5.2422
     5.4046   5.4046   5.4554   5.4554   8.7134   9.5745   9.5822   9.5822
    10.9337  11.1764  11.1811  11.1811  11.5209  11.5209

     occupation numbers 
     1.0000   1.0000   1.0000   1.0000   1.0000   1.0000   1.0000   1.0000
     1.0000   1.0000   1.0000   1.0000   1.0000   1.0000   1.0000   1.0000
     1.0000   1.0000   1.0000   1.0000   1.0000   1.0000   1.0000   1.0000
     1.0000   1.0000   1.0000   1.0000   1.0000   1.0000   1.0000   1.0000
     1.0000   1.0000   1.0000   1.0000   1.0000   1.0000   1.0000   1.0000
     1.0000   1.0000   1.0000   1.0000   1.0000   1.0000   1.0000   1.0000
     1.0000   1.0000   1.0000   1.0000   0.0000   0.0000   0.0000   0.0000
     0.0000   0.0000   0.0000   0.0000   0.0000   0.0000

          k = 0.0000 0.0000-0.5000 ( 27846 PWs)   bands (ev):

   -65.0573 -65.0573 -65.0573 -65.0573 -35.1693 -35.1693 -35.1693 -35.1693
   -35.1690 -35.1690 -35.1687 -35.1687 -35.1684 -35.1684 -35.1684 -35.1684
    -1.8874  -1.8873  -0.0347  -0.0347   0.4742   0.4742   1.1395   1.1395
     1.9067   1.9067   1.9067   1.9067   1.9863   1.9863   2.0253   2.0253
     3.4711   3.4711   3.4711   3.4711   3.8994   3.8994   3.9581   3.9581
     4.1543   4.1543   5.0448   5.0448   5.0448   5.0448   5.3424   5.3424
     5.3424   5.3424   5.4554   5.4554   9.0486   9.0486   9.8728   9.8728
    11.0362  11.0362  11.1287  11.1287  11.4716  11.4716

     occupation numbers 
     1.0000   1.0000   1.0000   1.0000   1.0000   1.0000   1.0000   1.0000
     1.0000   1.0000   1.0000   1.0000   1.0000   1.0000   1.0000   1.0000
     1.0000   1.0000   1.0000   1.0000   1.0000   1.0000   1.0000   1.0000
     1.0000   1.0000   1.0000   1.0000   1.0000   1.0000   1.0000   1.0000
     1.0000   1.0000   1.0000   1.0000   1.0000   1.0000   1.0000   1.0000
     1.0000   1.0000   1.0000   1.0000   1.0000   1.0000   1.0000   1.0000
     1.0000   1.0000   1.0000   1.0000   0.0000   0.0000   0.0000   0.0000
     0.0000   0.0000   0.0000   0.0000   0.0000   0.0000

          k = 0.0000 0.1000 0.1000 ( 27935 PWs)   bands (ev):

   -65.0574 -65.0573 -65.0573 -65.0573 -35.1698 -35.1698 -35.1698 -35.1688
   -35.1688 -35.1688 -35.1687 -35.1687 -35.1687 -35.1682 -35.1682 -35.1681
    -2.6405  -0.6639  -0.6639  -0.5580   1.0921   1.0921   1.3965   1.4392
     1.8032   1.8493   1.9021   1.9021   2.0487   2.1382   2.1382   2.9152
     2.9759   2.9759   3.2521   3.2521   3.3167   3.9935   3.9935   4.0806
     4.0944   4.1260   4.5355   4.5604   4.7578   4.7735   5.4341   5.4426
     5.4426   5.4516   5.4544   5.4544   8.5354   8.5354   8.6055  10.8058
    10.8058  10.8185  11.7573  11.9795  12.0100  12.2979

     occupation numbers 
     1.0000   1.0000   1.0000   1.0000   1.0000   1.0000   1.0000   1.0000
     1.0000   1.0000   1.0000   1.0000   1.0000   1.0000   1.0000   1.0000
     1.0000   1.0000   1.0000   1.0000   1.0000   1.0000   1.0000   1.0000
     1.0000   1.0000   1.0000   1.0000   1.0000   1.0000   1.0000   1.0000
     1.0000   1.0000   1.0000   1.0000   1.0000   1.0000   1.0000   1.0000
     1.0000   1.0000   1.0000   1.0000   1.0000   1.0000   1.0000   1.0000
     1.0000   1.0000   1.0000   1.0000   0.0000   0.0000   0.0000   0.0000
     0.0000   0.0000   0.0000   0.0000   0.0000   0.0000

          k = 0.0000 0.1000 0.2000 ( 27921 PWs)   bands (ev):

   -65.0574 -65.0573 -65.0573 -65.0573 -35.1697 -35.1697 -35.1697 -35.1689
   -35.1688 -35.1687 -35.1687 -35.1687 -35.1687 -35.1684 -35.1682 -35.1682
    -2.5378  -0.8777  -0.5665  -0.4630   0.9138   1.0383   1.1944   1.4643
     1.6966   1.6988   1.8590   1.9392   2.0727   2.1190   2.4423   2.7069
     2.7453   3.0237   3.3337   3.5109   3.5504   3.8729   3.9190   4.0328
     4.2732   4.3074   4.5177   4.5934   4.9196   4.9329   5.3971   5.4042
     5.4405   5.4501   5.4501   5.4540   8.5438   8.7555   8.8087  10.8319
    10.8670  10.8893  11.1373  11.5293  11.9505  12.2758

     occupation numbers 
     1.0000   1.0000   1.0000   1.0000   1.0000   1.0000   1.0000   1.0000
     1.0000   1.0000   1.0000   1.0000   1.0000   1.0000   1.0000   1.0000
     1.0000   1.0000   1.0000   1.0000   1.0000   1.0000   1.0000   1.0000
     1.0000   1.0000   1.0000   1.0000   1.0000   1.0000   1.0000   1.0000
     1.0000   1.0000   1.0000   1.0000   1.0000   1.0000   1.0000   1.0000
     1.0000   1.0000   1.0000   1.0000   1.0000   1.0000   1.0000   1.0000
     1.0000   1.0000   1.0000   1.0000   0.0000   0.0000   0.0000   0.0000
     0.0000   0.0000   0.0000   0.0000   0.0000   0.0000

          k = 0.0000 0.1000 0.3000 ( 27907 PWs)   bands (ev):

   -65.0573 -65.0573 -65.0573 -65.0573 -35.1696 -35.1696 -35.1695 -35.1690
   -35.1689 -35.1687 -35.1687 -35.1686 -35.1686 -35.1686 -35.1683 -35.1682
    -2.3689  -1.1871  -0.4092  -0.3113   0.8586   0.8646   0.8937   1.5275
     1.5765   1.5934   1.8621   1.8890   2.0515   2.1362   2.4243   2.5457
     2.8549   3.1030   3.5206   3.6646   3.7115   3.7449   3.7740   4.0952
     4.4518   4.5405   4.5655   4.5734   5.0992   5.1004   5.3254   5.3322
     5.4298   5.4358   5.4503   5.4534   8.6023   9.1110   9.1376  10.3050
    10.8775  10.9880  11.0275  11.3291  12.0166  12.2525

     occupation numbers 
     1.0000   1.0000   1.0000   1.0000   1.0000   1.0000   1.0000   1.0000
     1.0000   1.0000   1.0000   1.0000   1.0000   1.0000   1.0000   1.0000
     1.0000   1.0000   1.0000   1.0000   1.0000   1.0000   1.0000   1.0000
     1.0000   1.0000   1.0000   1.0000   1.0000   1.0000   1.0000   1.0000
     1.0000   1.0000   1.0000   1.0000   1.0000   1.0000   1.0000   1.0000
     1.0000   1.0000   1.0000   1.0000   1.0000   1.0000   1.0000   1.0000
     1.0000   1.0000   1.0000   1.0000   0.0000   0.0000   0.0000   0.0000
     0.0000   0.0000   0.0000   0.0000   0.0000   0.0000

          k = 0.0000 0.1000 0.4000 ( 27886 PWs)   bands (ev):

   -65.0573 -65.0573 -65.0573 -65.0573 -35.1695 -35.1694 -35.1693 -35.1692
   -35.1691 -35.1688 -35.1687 -35.1687 -35.1686 -35.1685 -35.1684 -35.1683
    -2.1382  -1.5278  -0.2063  -0.1252   0.5459   0.5913   0.9843   1.3324
     1.6211   1.7317   1.7876   1.9283   2.0147   2.1605   2.1776   2.3742
     3.1214   3.2133   3.4770   3.5205   3.8365   3.9004   3.9162   4.1761
     4.3642   4.4044   4.8294   4.8309   5.2112   5.2170   5.2391   5.2431
     5.4008   5.4023   5.4510   5.4527   8.7665   9.5444   9.5462   9.6078
    10.9458  11.1671  11.1876  11.2516  11.3967  11.5127

     occupation numbers 
     1.0000   1.0000   1.0000   1.0000   1.0000   1.0000   1.0000   1.0000
     1.0000   1.0000   1.0000   1.0000   1.0000   1.0000   1.0000   1.0000
     1.0000   1.0000   1.0000   1.0000   1.0000   1.0000   1.0000   1.0000
     1.0000   1.0000   1.0000   1.0000   1.0000   1.0000   1.0000   1.0000
     1.0000   1.0000   1.0000   1.0000   1.0000   1.0000   1.0000   1.0000
     1.0000   1.0000   1.0000   1.0000   1.0000   1.0000   1.0000   1.0000
     1.0000   1.0000   1.0000   1.0000   0.0000   0.0000   0.0000   0.0000
     0.0000   0.0000   0.0000   0.0000   0.0000   0.0000

          k = 0.0000 0.1000-0.5000 ( 27868 PWs)   bands (ev):

   -65.0573 -65.0573 -65.0573 -65.0573 -35.1693 -35.1693 -35.1693 -35.1693
   -35.1690 -35.1690 -35.1687 -35.1687 -35.1685 -35.1685 -35.1684 -35.1684
    -1.8533  -1.8533  -0.0359  -0.0359   0.4002   0.4002   1.1415   1.1415
     1.7019   1.7019   1.9276   1.9276   1.9718   1.9718   2.2522   2.2523
     3.3043   3.3043   3.3532   3.3532   3.9590   3.9590   4.1644   4.1644
     4.2687   4.2687   5.0468   5.0468   5.0500   5.0500   5.3392   5.3392
     5.3421   5.3421   5.4518   5.4518   9.0915   9.0915   9.8045   9.8045
    11.0408  11.0408  11.1025  11.1025  11.4763  11.4763

     occupation numbers 
     1.0000   1.0000   1.0000   1.0000   1.0000   1.0000   1.0000   1.0000
     1.0000   1.0000   1.0000   1.0000   1.0000   1.0000   1.0000   1.0000
     1.0000   1.0000   1.0000   1.0000   1.0000   1.0000   1.0000   1.0000
     1.0000   1.0000   1.0000   1.0000   1.0000   1.0000   1.0000   1.0000
     1.0000   1.0000   1.0000   1.0000   1.0000   1.0000   1.0000   1.0000
     1.0000   1.0000   1.0000   1.0000   1.0000   1.0000   1.0000   1.0000
     1.0000   1.0000   1.0000   1.0000   0.0000   0.0000   0.0000   0.0000
     0.0000   0.0000   0.0000   0.0000   0.0000   0.0000

          k = 0.0000 0.2000 0.2000 ( 27913 PWs)   bands (ev):

   -65.0573 -65.0573 -65.0573 -65.0573 -35.1696 -35.1696 -35.1696 -35.1690
   -35.1688 -35.1688 -35.1687 -35.1687 -35.1687 -35.1685 -35.1683 -35.1682
    -2.4352  -0.7773  -0.7773  -0.3684   0.8784   0.8784   0.9519   1.5315
     1.6667   1.7904   1.7930   1.8289   1.8289   2.4021   2.4021   2.7587
     2.7595   2.7595   3.6301   3.6301   3.6353   3.7141   3.7602   4.3048
     4.3048   4.4307   4.6047   4.8129   4.9330   4.9927   5.3720   5.4067
     5.4067   5.4409   5.4484   5.4484   8.7503   8.7503   8.9485  10.8913
    10.8913  10.9873  11.1793  11.1840  11.3911  12.4778

     occupation numbers 
     1.0000   1.0000   1.0000   1.0000   1.0000   1.0000   1.0000   1.0000
     1.0000   1.0000   1.0000   1.0000   1.0000   1.0000   1.0000   1.0000
     1.0000   1.0000   1.0000   1.0000   1.0000   1.0000   1.0000   1.0000
     1.0000   1.0000   1.0000   1.0000   1.0000   1.0000   1.0000   1.0000
     1.0000   1.0000   1.0000   1.0000   1.0000   1.0000   1.0000   1.0000
     1.0000   1.0000   1.0000   1.0000   1.0000   1.0000   1.0000   1.0000
     1.0000   1.0000   1.0000   1.0000   0.0000   0.0000   0.0000   0.0000
     0.0000   0.0000   0.0000   0.0000   0.0000   0.0000

          k = 0.0000 0.2000 0.3000 ( 27918 PWs)   bands (ev):

   -65.0573 -65.0573 -65.0573 -65.0573 -35.1695 -35.1695 -35.1695 -35.1691
   -35.1689 -35.1687 -35.1687 -35.1686 -35.1686 -35.1686 -35.1683 -35.1682
    -2.2667  -1.0860  -0.6128  -0.2177   0.6206   0.7668   0.8726   1.5333
     1.6189   1.6426   1.6903   1.7754   1.8457   2.4180   2.4810   2.6928
     2.7116   2.8465   3.4237   3.4991   3.8631   3.8891   3.9874   4.3548
     4.5885   4.6080   4.6182   4.8203   5.0898   5.1095   5.3114   5.3406
     5.4038   5.4319   5.4367   5.4457   8.7875   9.0798   9.1782  10.3813
    10.9324  11.0098  11.1684  11.2627  11.2828  11.7757

     occupation numbers 
     1.0000   1.0000   1.0000   1.0000   1.0000   1.0000   1.0000   1.0000
     1.0000   1.0000   1.0000   1.0000   1.0000   1.0000   1.0000   1.0000
     1.0000   1.0000   1.0000   1.0000   1.0000   1.0000   1.0000   1.0000
     1.0000   1.0000   1.0000   1.0000   1.0000   1.0000   1.0000   1.0000
     1.0000   1.0000   1.0000   1.0000   1.0000   1.0000   1.0000   1.0000
     1.0000   1.0000   1.0000   1.0000   1.0000   1.0000   1.0000   1.0000
     1.0000   1.0000   1.0000   1.0000   0.0000   0.0000   0.0000   0.0000
     0.0000   0.0000   0.0000   0.0000   0.0000   0.0000

          k = 0.0000 0.2000 0.4000 ( 27920 PWs)   bands (ev):

   -65.0573 -65.0573 -65.0573 -65.0573 -35.1695 -35.1694 -35.1693 -35.1692
   -35.1690 -35.1689 -35.1686 -35.1686 -35.1686 -35.1685 -35.1684 -35.1683
    -2.0364  -1.4266  -0.3901  -0.0439   0.3046   0.5555   0.9758   1.3413
     1.5390   1.6120   1.7922   1.7963   1.8350   2.2204   2.4605   2.6045
     2.9308   2.9666   3.2475   3.2972   4.0655   4.1219   4.1813   4.4188
     4.5588   4.7037   4.8433   4.8468   5.2066   5.2295   5.2333   5.2420
     5.3852   5.3959   5.4370   5.4425   8.9246   9.4657   9.4681   9.7091
    10.9904  11.1552  11.2055  11.2120  11.3874  11.5070

     occupation numbers 
     1.0000   1.0000   1.0000   1.0000   1.0000   1.0000   1.0000   1.0000
     1.0000   1.0000   1.0000   1.0000   1.0000   1.0000   1.0000   1.0000
     1.0000   1.0000   1.0000   1.0000   1.0000   1.0000   1.0000   1.0000
     1.0000   1.0000   1.0000   1.0000   1.0000   1.0000   1.0000   1.0000
     1.0000   1.0000   1.0000   1.0000   1.0000   1.0000   1.0000   1.0000
     1.0000   1.0000   1.0000   1.0000   1.0000   1.0000   1.0000   1.0000
     1.0000   1.0000   1.0000   1.0000   0.0000   0.0000   0.0000   0.0000
     0.0000   0.0000   0.0000   0.0000   0.0000   0.0000

          k = 0.0000 0.2000-0.5000 ( 27902 PWs)   bands (ev):

   -65.0573 -65.0573 -65.0573 -65.0573 -35.1694 -35.1694 -35.1692 -35.1692
   -35.1691 -35.1691 -35.1686 -35.1686 -35.1685 -35.1685 -35.1684 -35.1684
    -1.7519  -1.7519  -0.1302  -0.1302   0.3149   0.3149   1.1438   1.1438
     1.5541   1.5541   1.8147   1.8147   1.9901   1.9901   2.5237   2.5237
     3.0931   3.0931   3.1179   3.1179   4.1450   4.1450   4.4863   4.4863
     4.4902   4.4902   5.0514   5.0514   5.0630   5.0630   5.3312   5.3312
     5.3368   5.3368   5.4394   5.4394   9.2203   9.2203   9.6616   9.6616
    11.0359  11.0359  11.0649  11.0649  11.4864  11.4865

     occupation numbers 
     1.0000   1.0000   1.0000   1.0000   1.0000   1.0000   1.0000   1.0000
     1.0000   1.0000   1.0000   1.0000   1.0000   1.0000   1.0000   1.0000
     1.0000   1.0000   1.0000   1.0000   1.0000   1.0000   1.0000   1.0000
     1.0000   1.0000   1.0000   1.0000   1.0000   1.0000   1.0000   1.0000
     1.0000   1.0000   1.0000   1.0000   1.0000   1.0000   1.0000   1.0000
     1.0000   1.0000   1.0000   1.0000   1.0000   1.0000   1.0000   1.0000
     1.0000   1.0000   1.0000   1.0000   0.0000   0.0000   0.0000   0.0000
     0.0000   0.0000   0.0000   0.0000   0.0000   0.0000

          k = 0.0000 0.3000 0.3000 ( 27921 PWs)   bands (ev):

   -65.0573 -65.0573 -65.0573 -65.0573 -35.1695 -35.1695 -35.1694 -35.1692
   -35.1689 -35.1688 -35.1688 -35.1686 -35.1685 -35.1685 -35.1684 -35.1682
    -2.0987  -0.9196  -0.9196  -0.0723   0.2952   0.7990   0.7990   1.5217
     1.5781   1.6173   1.6191   1.6191   1.7519   2.5745   2.5745   2.6706
     2.6706   2.7413   3.2251   3.2719   4.1466   4.1466   4.2615   4.6242
     4.6242   4.6994   4.7127   5.0351   5.0794   5.1531   5.2728   5.3477
     5.3477   5.4216   5.4262   5.4262   9.0796   9.0796   9.2705  10.4607
    10.5814  11.0438  11.0438  11.2062  11.4001  11.5294

     occupation numbers 
     1.0000   1.0000   1.0000   1.0000   1.0000   1.0000   1.0000   1.0000
     1.0000   1.0000   1.0000   1.0000   1.0000   1.0000   1.0000   1.0000
     1.0000   1.0000   1.0000   1.0000   1.0000   1.0000   1.0000   1.0000
     1.0000   1.0000   1.0000   1.0000   1.0000   1.0000   1.0000   1.0000
     1.0000   1.0000   1.0000   1.0000   1.0000   1.0000   1.0000   1.0000
     1.0000   1.0000   1.0000   1.0000   1.0000   1.0000   1.0000   1.0000
     1.0000   1.0000   1.0000   1.0000   0.0000   0.0000   0.0000   0.0000
     0.0000   0.0000   0.0000   0.0000   0.0000   0.0000

          k = 0.0000 0.3000 0.4000 ( 27920 PWs)   bands (ev):

   -65.0573 -65.0573 -65.0573 -65.0573 -35.1694 -35.1694 -35.1693 -35.1693
   -35.1691 -35.1690 -35.1687 -35.1685 -35.1685 -35.1685 -35.1684 -35.1683
    -1.8691  -1.2601  -0.6921  -0.0992   0.1762   0.6322   0.9325   1.3505
     1.4897   1.5051   1.5820   1.6088   1.9029   2.3193   2.6770   2.7034
     2.7319   2.8410   3.0570   3.0788   4.3427   4.4319   4.4686   4.6677
     4.7362   4.8632   4.8633   4.9519   5.1903   5.2276   5.2361   5.2435
     5.3433   5.3872   5.4142   5.4199   9.1731   9.4053   9.4230   9.8723
    10.7382  11.0120  11.0854  11.1657  11.2284  11.2589

     occupation numbers 
     1.0000   1.0000   1.0000   1.0000   1.0000   1.0000   1.0000   1.0000
     1.0000   1.0000   1.0000   1.0000   1.0000   1.0000   1.0000   1.0000
     1.0000   1.0000   1.0000   1.0000   1.0000   1.0000   1.0000   1.0000
     1.0000   1.0000   1.0000   1.0000   1.0000   1.0000   1.0000   1.0000
     1.0000   1.0000   1.0000   1.0000   1.0000   1.0000   1.0000   1.0000
     1.0000   1.0000   1.0000   1.0000   1.0000   1.0000   1.0000   1.0000
     1.0000   1.0000   1.0000   1.0000   0.0000   0.0000   0.0000   0.0000
     0.0000   0.0000   0.0000   0.0000   0.0000   0.0000

          k = 0.0000 0.3000-0.5000 ( 27904 PWs)   bands (ev):

   -65.0573 -65.0573 -65.0573 -65.0573 -35.1694 -35.1694 -35.1692 -35.1692
   -35.1691 -35.1691 -35.1686 -35.1686 -35.1685 -35.1685 -35.1683 -35.1683
    -1.5851  -1.5851  -0.4111  -0.4111   0.3996   0.3996   1.1282   1.1282
     1.4673   1.4673   1.5945   1.5945   2.0933   2.0933   2.7031   2.7031
     2.8655   2.8655   2.9624   2.9624   4.4423   4.4423   4.7105   4.7105
     4.7589   4.7589   5.0542   5.0542   5.0760   5.0760   5.3114   5.3114
     5.3226   5.3226   5.4149   5.4149   9.4243   9.4243   9.5468   9.5468
    10.9071  10.9071  10.9928  10.9928  11.1276  11.1276

     occupation numbers 
     1.0000   1.0000   1.0000   1.0000   1.0000   1.0000   1.0000   1.0000
     1.0000   1.0000   1.0000   1.0000   1.0000   1.0000   1.0000   1.0000
     1.0000   1.0000   1.0000   1.0000   1.0000   1.0000   1.0000   1.0000
     1.0000   1.0000   1.0000   1.0000   1.0000   1.0000   1.0000   1.0000
     1.0000   1.0000   1.0000   1.0000   1.0000   1.0000   1.0000   1.0000
     1.0000   1.0000   1.0000   1.0000   1.0000   1.0000   1.0000   1.0000
     1.0000   1.0000   1.0000   1.0000   0.0000   0.0000   0.0000   0.0000
     0.0000   0.0000   0.0000   0.0000   0.0000   0.0000

          k = 0.0000 0.4000 0.4000 ( 27886 PWs)   bands (ev):

   -65.0573 -65.0573 -65.0573 -65.0573 -35.1694 -35.1694 -35.1694 -35.1692
   -35.1691 -35.1689 -35.1689 -35.1686 -35.1685 -35.1684 -35.1684 -35.1683
    -1.6402  -1.0324  -1.0324  -0.4264   0.3554   0.8020   0.8020   1.2734
     1.4195   1.4401   1.4539   1.4540   2.0503   2.4557   2.4557   2.7829
     2.8091   2.8091   2.8297   2.9713   4.6679   4.6679   4.7341   4.8483
     4.8826   4.8826   4.8900   5.0643   5.1439   5.2043   5.2494   5.2494
     5.2656   5.3795   5.3795   5.3904   9.4397   9.4397   9.4578   9.9405
    10.3129  10.7732  10.7732  10.9646  11.2010  11.2437

     occupation numbers 
     1.0000   1.0000   1.0000   1.0000   1.0000   1.0000   1.0000   1.0000
     1.0000   1.0000   1.0000   1.0000   1.0000   1.0000   1.0000   1.0000
     1.0000   1.0000   1.0000   1.0000   1.0000   1.0000   1.0000   1.0000
     1.0000   1.0000   1.0000   1.0000   1.0000   1.0000   1.0000   1.0000
     1.0000   1.0000   1.0000   1.0000   1.0000   1.0000   1.0000   1.0000
     1.0000   1.0000   1.0000   1.0000   1.0000   1.0000   1.0000   1.0000
     1.0000   1.0000   1.0000   1.0000   0.0000   0.0000   0.0000   0.0000
     0.0000   0.0000   0.0000   0.0000   0.0000   0.0000

          k = 0.0000 0.4000-0.5000 ( 27924 PWs)   bands (ev):

[...]
     atom    8 type  2   force =    -0.00000000   -0.00000000    0.00000000
     atom    9 type  1   force =    -0.00000000   -0.00000000   -2.45700671
     atom   10 type  1   force =    -0.00000000    2.45700671    0.00000000
     atom   11 type  1   force =     2.45700671   -0.00000000    0.00000000
     atom   12 type  1   force =    -0.00000000   -0.00000000    2.45700671
     atom   13 type  1   force =     0.00000000   -2.45700671   -0.00000000
     atom   14 type  1   force =    -2.45700671    0.00000000    0.00000000
     atom   15 type  1   force =    -0.00000000    0.00000000   -2.45700671
     atom   16 type  1   force =    -0.00000000    2.45700671   -0.00000000
     atom   17 type  1   force =     2.45700671   -0.00000000   -0.00000000
     atom   18 type  1   force =    -0.00000000    0.00000000    2.45700671
     atom   19 type  1   force =     0.00000000   -2.45700671    0.00000000
     atom   20 type  1   force =    -2.45700671    0.00000000   -0.00000000
     atom   21 type  1   force =     0.00000000   -0.00000000   -2.45700671
     atom   22 type  1   force =     0.00000000    2.45700671   -0.00000000
     atom   23 type  1   force =     2.45700671   -0.00000000   -0.00000000
     atom   24 type  1   force =     0.00000000   -0.00000000    2.45700671
     atom   25 type  1   force =     0.00000000   -2.45700671   -0.00000000
     atom   26 type  1   force =    -2.45700671    0.00000000   -0.00000000
     atom   27 type  1   force =    -0.00000000   -0.00000000   -2.45700671
     atom   28 type  1   force =    -0.00000000    2.45700671    0.00000000
     atom   29 type  1   force =     2.45700671   -0.00000000    0.00000000
     atom   30 type  1   force =     0.00000000    0.00000000    2.45700671
     atom   31 type  1   force =     0.00000000   -2.45700671   -0.00000000
     atom   32 type  1   force =    -2.45700671    0.00000000   -0.00000000
     atom   33 type  3   force =    -0.00000000   -0.00000000   -0.00000000
     atom   34 type  3   force =    -0.00000000    0.00000000    0.00000000
     atom   35 type  3   force =     0.00000000   -0.00000000    0.00000000
     atom   36 type  3   force =     0.00000000    0.00000000   -0.00000000
     The local contribution  to forces
     atom    1 type  2   force =     0.00000005   -0.00000005    0.00000005
     atom    2 type  2   force =    -0.00000005   -0.00000005    0.00000005
     atom    3 type  2   force =     0.00000005    0.00000005   -0.00000005
     atom    4 type  2   force =    -0.00000005    0.00000005   -0.00000005
     atom    5 type  2   force =    -0.00000005   -0.00000005   -0.00000005
     atom    6 type  2   force =     0.00000005   -0.00000005   -0.00000005
     atom    7 type  2   force =    -0.00000005    0.00000005    0.00000005
     atom    8 type  2   force =     0.00000005    0.00000005    0.00000005
     atom    9 type  1   force =    -0.00000000   -0.00000000    2.43091508
     atom   10 type  1   force =     0.00000000   -2.43091513   -0.00000000
     atom   11 type  1   force =    -2.43091513   -0.00000000   -0.00000000
     atom   12 type  1   force =     0.00000000    0.00000000   -2.43091508
     atom   13 type  1   force =     0.00000000    2.43091508    0.00000000
     atom   14 type  1   force =     2.43091513    0.00000000    0.00000000
     atom   15 type  1   force =     0.00000000    0.00000000    2.43091513
     atom   16 type  1   force =    -0.00000000   -2.43091508    0.00000000
     atom   17 type  1   force =    -2.43091513    0.00000000    0.00000000
     atom   18 type  1   force =     0.00000000   -0.00000000   -2.43091513
     atom   19 type  1   force =    -0.00000000    2.43091513    0.00000000
     atom   20 type  1   force =     2.43091513   -0.00000000   -0.00000000
     atom   21 type  1   force =     0.00000000   -0.00000000    2.43091513
     atom   22 type  1   force =     0.00000000   -2.43091513    0.00000000
     atom   23 type  1   force =    -2.43091508   -0.00000000    0.00000000
     atom   24 type  1   force =    -0.00000000    0.00000000   -2.43091513
     atom   25 type  1   force =    -0.00000000    2.43091497    0.00000000
     atom   26 type  1   force =     2.43091508    0.00000000   -0.00000000
     atom   27 type  1   force =     0.00000000    0.00000000    2.43091497
     atom   28 type  1   force =     0.00000000   -2.43091497    0.00000000
     atom   29 type  1   force =    -2.43091497   -0.00000000    0.00000000
     atom   30 type  1   force =     0.00000000    0.00000000   -2.43091497
     atom   31 type  1   force =    -0.00000000    2.43091513    0.00000000
     atom   32 type  1   force =     2.43091497    0.00000000    0.00000000
     atom   33 type  3   force =     0.00000000    0.00000000    0.00000000
     atom   34 type  3   force =     0.00000000    0.00000000    0.00000000
     atom   35 type  3   force =     0.00000000    0.00000000    0.00000000
     atom   36 type  3   force =     0.00000000    0.00000000    0.00000000
     The core correction contribution to forces
     atom    1 type  2   force =    -0.00000001    0.00000001   -0.00000001
     atom    2 type  2   force =     0.00000001    0.00000001   -0.00000001
     atom    3 type  2   force =    -0.00000001   -0.00000001    0.00000001
     atom    4 type  2   force =     0.00000001   -0.00000001    0.00000001
     atom    5 type  2   force =     0.00000001    0.00000001    0.00000001
     atom    6 type  2   force =    -0.00000001    0.00000001    0.00000001
     atom    7 type  2   force =     0.00000001   -0.00000001   -0.00000001
     atom    8 type  2   force =    -0.00000001   -0.00000001   -0.00000001
     atom    9 type  1   force =     0.00000000    0.00000000    0.00000000
     atom   10 type  1   force =     0.00000000    0.00000000    0.00000000
     atom   11 type  1   force =     0.00000000    0.00000000    0.00000000
     atom   12 type  1   force =     0.00000000    0.00000000    0.00000000
     atom   13 type  1   force =     0.00000000    0.00000000    0.00000000
     atom   14 type  1   force =     0.00000000    0.00000000    0.00000000
     atom   15 type  1   force =     0.00000000    0.00000000    0.00000000
     atom   16 type  1   force =     0.00000000    0.00000000    0.00000000
     atom   17 type  1   force =     0.00000000    0.00000000    0.00000000
     atom   18 type  1   force =     0.00000000    0.00000000    0.00000000
     atom   19 type  1   force =     0.00000000    0.00000000    0.00000000
     atom   20 type  1   force =     0.00000000    0.00000000    0.00000000
     atom   21 type  1   force =     0.00000000    0.00000000    0.00000000
     atom   22 type  1   force =     0.00000000    0.00000000    0.00000000
     atom   23 type  1   force =     0.00000000    0.00000000    0.00000000
     atom   24 type  1   force =     0.00000000    0.00000000    0.00000000
     atom   25 type  1   force =     0.00000000    0.00000000    0.00000000
     atom   26 type  1   force =     0.00000000    0.00000000    0.00000000
     atom   27 type  1   force =     0.00000000    0.00000000    0.00000000
     atom   28 type  1   force =     0.00000000    0.00000000    0.00000000
     atom   29 type  1   force =     0.00000000    0.00000000    0.00000000
     atom   30 type  1   force =     0.00000000    0.00000000    0.00000000
     atom   31 type  1   force =     0.00000000    0.00000000    0.00000000
     atom   32 type  1   force =     0.00000000    0.00000000    0.00000000
     atom   33 type  3   force =     0.00000000    0.00000000    0.00000000
     atom   34 type  3   force =     0.00000000    0.00000000    0.00000000
     atom   35 type  3   force =     0.00000000    0.00000000    0.00000000
     atom   36 type  3   force =     0.00000000    0.00000000    0.00000000
     The Hubbard contrib.    to forces
     atom    1 type  2   force =     0.00000000    0.00000000    0.00000000
     atom    2 type  2   force =     0.00000000    0.00000000    0.00000000
     atom    3 type  2   force =     0.00000000    0.00000000    0.00000000
     atom    4 type  2   force =     0.00000000    0.00000000    0.00000000
     atom    5 type  2   force =     0.00000000    0.00000000    0.00000000
     atom    6 type  2   force =     0.00000000    0.00000000    0.00000000
     atom    7 type  2   force =     0.00000000    0.00000000    0.00000000
     atom    8 type  2   force =     0.00000000    0.00000000    0.00000000
     atom    9 type  1   force =     0.00000000    0.00000000    0.00000000
     atom   10 type  1   force =     0.00000000    0.00000000    0.00000000
     atom   11 type  1   force =     0.00000000    0.00000000    0.00000000
     atom   12 type  1   force =     0.00000000    0.00000000    0.00000000
     atom   13 type  1   force =     0.00000000    0.00000000    0.00000000
     atom   14 type  1   force =     0.00000000    0.00000000    0.00000000
     atom   15 type  1   force =     0.00000000    0.00000000    0.00000000
     atom   16 type  1   force =     0.00000000    0.00000000    0.00000000
     atom   17 type  1   force =     0.00000000    0.00000000    0.00000000
     atom   18 type  1   force =     0.00000000    0.00000000    0.00000000
     atom   19 type  1   force =     0.00000000    0.00000000    0.00000000
     atom   20 type  1   force =     0.00000000    0.00000000    0.00000000
     atom   21 type  1   force =     0.00000000    0.00000000    0.00000000
     atom   22 type  1   force =     0.00000000    0.00000000    0.00000000
     atom   23 type  1   force =     0.00000000    0.00000000    0.00000000
     atom   24 type  1   force =     0.00000000    0.00000000    0.00000000
     atom   25 type  1   force =     0.00000000    0.00000000    0.00000000
     atom   26 type  1   force =     0.00000000    0.00000000    0.00000000
     atom   27 type  1   force =     0.00000000    0.00000000    0.00000000
     atom   28 type  1   force =     0.00000000    0.00000000    0.00000000
     atom   29 type  1   force =     0.00000000    0.00000000    0.00000000
     atom   30 type  1   force =     0.00000000    0.00000000    0.00000000
     atom   31 type  1   force =     0.00000000    0.00000000    0.00000000
     atom   32 type  1   force =     0.00000000    0.00000000    0.00000000
     atom   33 type  3   force =     0.00000000    0.00000000    0.00000000
     atom   34 type  3   force =     0.00000000    0.00000000    0.00000000
     atom   35 type  3   force =     0.00000000    0.00000000    0.00000000
     atom   36 type  3   force =     0.00000000    0.00000000    0.00000000
     The SCF correction term to forces
     atom    1 type  2   force =    -0.00000015    0.00000015   -0.00000015
     atom    2 type  2   force =     0.00000015    0.00000015   -0.00000015
     atom    3 type  2   force =    -0.00000015   -0.00000015    0.00000015
     atom    4 type  2   force =     0.00000015   -0.00000015    0.00000015
     atom    5 type  2   force =     0.00000015    0.00000015    0.00000015
     atom    6 type  2   force =    -0.00000015    0.00000015    0.00000015
     atom    7 type  2   force =     0.00000015   -0.00000015   -0.00000015
     atom    8 type  2   force =    -0.00000015   -0.00000015   -0.00000015
     atom    9 type  1   force =     0.00000000    0.00000000   -0.00000788
     atom   10 type  1   force =     0.00000000    0.00000786    0.00000000
     atom   11 type  1   force =     0.00000786    0.00000000    0.00000000
     atom   12 type  1   force =     0.00000000   -0.00000000    0.00000788
     atom   13 type  1   force =    -0.00000000   -0.00000788   -0.00000000
     atom   14 type  1   force =    -0.00000786   -0.00000000    0.00000000
     atom   15 type  1   force =     0.00000000    0.00000000   -0.00000786
     atom   16 type  1   force =    -0.00000000    0.00000788   -0.00000000
     atom   17 type  1   force =     0.00000786    0.00000000   -0.00000000
     atom   18 type  1   force =     0.00000000    0.00000000    0.00000786
     atom   19 type  1   force =     0.00000000   -0.00000786    0.00000000
     atom   20 type  1   force =    -0.00000786    0.00000000   -0.00000000
     atom   21 type  1   force =     0.00000000    0.00000000   -0.00000786
     atom   22 type  1   force =    -0.00000000    0.00000786   -0.00000000
     atom   23 type  1   force =     0.00000788    0.00000000    0.00000000
     atom   24 type  1   force =    -0.00000000    0.00000000    0.00000786
     atom   25 type  1   force =     0.00000000   -0.00000771    0.00000000
     atom   26 type  1   force =    -0.00000788    0.00000000   -0.00000000
     atom   27 type  1   force =     0.00000000   -0.00000000   -0.00000771
     atom   28 type  1   force =     0.00000000    0.00000771    0.00000000
     atom   29 type  1   force =     0.00000771   -0.00000000    0.00000000
     atom   30 type  1   force =     0.00000000    0.00000000    0.00000771
     atom   31 type  1   force =    -0.00000000   -0.00000786   -0.00000000
     atom   32 type  1   force =    -0.00000771   -0.00000000    0.00000000
     atom   33 type  3   force =    -0.00000000    0.00000000    0.00000000
     atom   34 type  3   force =    -0.00000000   -0.00000000    0.00000000
     atom   35 type  3   force =    -0.00000000   -0.00000000    0.00000000
     atom   36 type  3   force =    -0.00000000   -0.00000000    0.00000000

     Total force =     0.017955     Total SCF correction =     0.000038


     Computing stress (Cartesian axis) and pressure

          total   stress  (Ry/bohr**3)                   (kbar)     P=       -2.33
  -0.00001584   0.00000000   0.00000000           -2.33        0.00        0.00
   0.00000000  -0.00001584   0.00000000            0.00       -2.33        0.00
   0.00000000   0.00000000  -0.00001584            0.00        0.00       -2.33

     kinetic stress (kbar)   6460.89      0.00      0.00
                                0.00   6460.89      0.00
                                0.00      0.00   6460.89

     local   stress (kbar)  -4065.04      0.00     -0.00
                                0.00  -4065.04     -0.00
                               -0.00     -0.00  -4065.04

     nonloc. stress (kbar)   4404.56      0.00      0.00
                                0.00   4404.56      0.00
                                0.00      0.00   4404.56

     hartree stress (kbar)   7255.00     -0.00      0.00
                               -0.00   7255.00      0.00
                                0.00      0.00   7255.00

     exc-cor stress (kbar)  -2042.30     -0.00      0.00
                               -0.00  -2042.30      0.00
                                0.00      0.00  -2042.30

     corecor stress (kbar)   -444.41     -0.00     -0.00
                               -0.00   -444.41      0.00
                               -0.00      0.00   -444.41

     ewald   stress (kbar) -11571.03      0.00      0.00
                                0.00 -11571.03      0.00
                                0.00      0.00 -11571.03

     hubbard stress (kbar)      0.00      0.00      0.00
                                0.00      0.00      0.00
                                0.00      0.00      0.00

     DFT-D   stress (kbar)      0.00      0.00      0.00
                                0.00      0.00      0.00
                                0.00      0.00      0.00

     XDM     stress (kbar)      0.00      0.00      0.00
                                0.00      0.00      0.00
                                0.00      0.00      0.00

     dft-nl  stress (kbar)      0.00      0.00      0.00
                                0.00      0.00      0.00
                                0.00      0.00      0.00

     TS-vdW  stress (kbar)      0.00      0.00      0.00
                                0.00      0.00      0.00
                                0.00      0.00      0.00

     MDB     stress (kbar)      0.00      0.00      0.00
                                0.00      0.00      0.00
                                0.00      0.00      0.00

     3D-RISM stress (kbar)      0.00      0.00      0.00
                                0.00      0.00      0.00
                                0.00      0.00      0.00


     Writing all to output data dir ./out/ru-kp-10.save/

     init_run     :      4.95s CPU      5.75s WALL (       1 calls)
     electrons    :    170.12s CPU    201.63s WALL (       1 calls)
     forces       :      1.37s CPU      1.52s WALL (       1 calls)
     stress       :     10.05s CPU     10.25s WALL (       1 calls)

     Called by init_run:
     wfcinit      :      3.48s CPU      3.96s WALL (       1 calls)
     wfcinit:atom :      0.05s CPU      0.05s WALL (      28 calls)
     wfcinit:wfcr :      3.21s CPU      3.68s WALL (      28 calls)
     potinit      :      0.54s CPU      0.71s WALL (       1 calls)
     hinit0       :      0.39s CPU      0.46s WALL (       1 calls)

     Called by electrons:
     c_bands      :    142.98s CPU    166.32s WALL (      24 calls)
     sum_band     :     20.45s CPU     24.32s WALL (      24 calls)
     v_of_rho     :      1.82s CPU      2.16s WALL (      25 calls)
     v_h          :      0.16s CPU      0.21s WALL (      25 calls)
     v_xc         :      1.78s CPU      2.10s WALL (      27 calls)
     newd         :      2.53s CPU      3.36s WALL (      25 calls)
     PAW_pot      :      2.01s CPU      5.02s WALL (      25 calls)
     mix_rho      :      0.29s CPU      0.34s WALL (      24 calls)

     Called by c_bands:
     init_us_2    :      2.53s CPU      2.73s WALL (    1428 calls)
     init_us_2:cp :      2.52s CPU      2.73s WALL (    1428 calls)
     cegterg      :    135.75s CPU    151.65s WALL (     672 calls)

     Called by sum_band:
     sum_band:wei :      0.01s CPU      0.01s WALL (      24 calls)
     sum_band:loo :     17.30s CPU     19.92s WALL (      24 calls)
     sum_band:buf :      0.35s CPU      0.37s WALL (     672 calls)
     sum_band:ini :      1.12s CPU      1.16s WALL (     672 calls)
     sum_band:cal :      2.88s CPU      3.48s WALL (     672 calls)
     sum_band:bec :      0.08s CPU      0.08s WALL (     672 calls)
     addusdens    :      2.89s CPU      3.96s WALL (      24 calls)
                                        0.00s GPU  (      24 calls)
     addusd:skk   :      0.18s CPU      0.18s WALL (      72 calls)
                                        0.00s GPU  (      72 calls)

     Called by *egterg:
     cdiaghg      :     17.08s CPU     18.03s WALL (    3943 calls)
     cegterg:over :      6.66s CPU      7.82s WALL (    3271 calls)
     cegterg:upda :      4.31s CPU      4.45s WALL (    3271 calls)
     cegterg:last :      7.36s CPU      7.43s WALL (    1620 calls)
     h_psi        :     91.95s CPU    105.29s WALL (    3971 calls)
     s_psi        :      6.91s CPU      7.02s WALL (    3971 calls)
     g_psi        :      0.23s CPU      0.24s WALL (    3271 calls)

     Called by h_psi:
     h_psi:calbec :     12.06s CPU     14.36s WALL (    3971 calls)
     vloc_psi     :     71.15s CPU     81.85s WALL (    3971 calls)
     add_vuspsi   :      7.90s CPU      8.21s WALL (    3971 calls)

     General routines
     calbec       :     15.48s CPU     18.52s WALL (    4783 calls)
     fft          :      1.25s CPU      1.68s WALL (     348 calls)
     ffts         :      0.18s CPU      0.19s WALL (      49 calls)
     fftw         :     67.69s CPU     78.09s WALL (  283790 calls)
     interpolate  :      0.27s CPU      0.29s WALL (      25 calls)

     Parallel routines

     PAW routines
     PAW_pot      :      2.01s CPU      5.02s WALL (      25 calls)
     PAW_symme    :      0.02s CPU      0.03s WALL (      49 calls)

     PWSCF        :   3m 7.71s CPU   3m42.97s WALL


   This run was terminated on:  22:31: 4  13Jun2025            

=------------------------------------------------------------------------------=
   JOB DONE.
=------------------------------------------------------------------------------=
