
     Program PWSCF v.7.2 starts on 13Jun2025 at 22:38:21 

     This program is part of the open-source Quantum ESPRESSO suite
     for quantum simulation of materials; please cite
         "P. Giannozzi et al., J. Phys.:Condens. Matter 21 395502 (2009);
         "P. Giannozzi et al., J. Phys.:Condens. Matter 29 465901 (2017);
         "P. Giannozzi et al., J. Chem. Phys. 152 154105 (2020);
          URL http://www.quantum-espresso.org", 
     in publications or presentations arising from this work. More details at
     http://www.quantum-espresso.org/quote

     Parallel version (MPI & OpenMP), running on      64 processor cores
     Number of MPI processes:                64
     Threads/MPI process:                     1

     MPI processes distributed on     1 nodes
     220128 MiB available memory on the printing compute node when the environment starts

     Reading input from ru_kp_5.in

     Current dimensions of program PWSCF are:
     Max number of different atomic species (ntypx) = 10
     Max number of k-points (npk) =  40000
     Max angular momentum in pseudopotentials (lmaxx) =  4
     Message from routine read_pp_mesh:
     mismatch in mesh size, discarding the one in header
     file Mg.pbesol-n-kjpaw_psl.0.3.0.UPF: wavefunction(s)  3S renormalized
     Found identity + (  0.0000  0.5000 -0.5000) symmetry
     This is a supercell, fractional translations are disabled
     Message from routine setup:
     using ibrav=0 with symmetry is DISCOURAGED, use correct ibrav instead

     K-points division:     npool     =       2
     R & G space division:  proc/nbgrp/npool/nimage =      32
     Subspace diagonalization in iterative solution of the eigenvalue problem:
     a serial algorithm will be used


     Parallelization info
     --------------------
     sticks:   dense  smooth     PW     G-vecs:    dense   smooth      PW
     Min         416     138     37                36246     6970     971
     Max         417     139     38                36253     6975     974
     Sum       13341    4445   1201              1160031   223135   31103

     Using Slab Decomposition



     bravais-lattice index     =            0
     lattice parameter (alat)  =      12.4630  a.u.
     unit-cell volume          =    1935.8122 (a.u.)^3
     number of atoms/cell      =           36
     number of atomic types    =            3
     number of electrons       =       104.00
     number of Kohn-Sham states=           62
     kinetic-energy cutoff     =      90.0000  Ry
     charge density cutoff     =    1080.0000  Ry
     scf convergence threshold =      7.2E-09
     mixing beta               =       0.4000
     number of iterations used =            8  plain     mixing
     Exchange-correlation= SLA PW PSX PSC
                           (   1   4  10   8   0   0   0)

     celldm(1)=  12.462956  celldm(2)=   0.000000  celldm(3)=   0.000000
     celldm(4)=   0.000000  celldm(5)=   0.000000  celldm(6)=   0.000000

     crystal axes: (cart. coord. in units of alat)
               a(1) = (   1.000000   0.000000   0.000000 )  
               a(2) = (   0.000000   1.000000   0.000000 )  
               a(3) = (   0.000000   0.000000   1.000000 )  

     reciprocal axes: (cart. coord. in units 2 pi/alat)
               b(1) = (  1.000000  0.000000  0.000000 )  
               b(2) = (  0.000000  1.000000  0.000000 )  
               b(3) = (  0.000000  0.000000  1.000000 )  


     PseudoPot. # 1 for H  read from file:
     ./pseudo/H.pbesol-rrkjus_psl.1.0.0.UPF
     MD5 check sum: 0324ed591cc0147dc3d88cad0d33f665
     Pseudo is Ultrasoft, Zval =  1.0
     Generated using "atomic" code by A. Dal Corso  v.6.0 svn rev. 13079
     Using radial grid of  929 points,  2 beta functions with: 
                l(1) =   0
                l(2) =   0
     Q(r) pseudized with 0 coefficients 


     PseudoPot. # 2 for Mg read from file:
     ./pseudo/Mg.pbesol-n-kjpaw_psl.0.3.0.UPF
     MD5 check sum: a6c8d2ff726a5f7005dea00130d82930
     Pseudo is Projector augmented-wave + core cor, Zval =  2.0
     Generated using "atomic" code by A. Dal Corso  v.6.1 svn rev. 13369
     Shape of augmentation charge: PSQ
     Using radial grid of 1129 points,  4 beta functions with: 
                l(1) =   0
                l(2) =   0
                l(3) =   1
                l(4) =   1
     Q(r) pseudized with 0 coefficients 


     PseudoPot. # 3 for Ru read from file:
     ./pseudo/Ru.upf
     MD5 check sum: be3bb57e49b2afd7571f8dd5d9c7d987
     Pseudo is Projector augmented-wave + core cor, Zval = 16.0
     Generated using ATOMPAW code
     Shape of augmentation charge: SINC**2
     Using radial grid of 2342 points,  6 beta functions with: 
                l(1) =   0
                l(2) =   0
                l(3) =   1
                l(4) =   1
                l(5) =   2
                l(6) =   2
     Q(r) pseudized with 0 coefficients 


     atomic species   valence    mass     pseudopotential
        H              1.00     1.00794     H ( 1.00)
        Mg             2.00    24.30500     Mg( 1.00)
        Ru            16.00   101.07000     Ru( 1.00)

     48 Sym. Ops., with inversion, found


                                    s                        frac. trans.

      isym =  1     identity                                     

 cryst.   s( 1) = (     1          0          0      )
                  (     0          1          0      )
                  (     0          0          1      )

 cart.    s( 1) = (  1.0000000  0.0000000  0.0000000 )
                  (  0.0000000  1.0000000  0.0000000 )
                  (  0.0000000  0.0000000  1.0000000 )


      isym =  2     180 deg rotation - cart. axis [0,0,1]        

 cryst.   s( 2) = (    -1          0          0      )
                  (     0         -1          0      )
                  (     0          0          1      )

 cart.    s( 2) = ( -1.0000000  0.0000000  0.0000000 )
                  (  0.0000000 -1.0000000  0.0000000 )
                  (  0.0000000  0.0000000  1.0000000 )


      isym =  3     180 deg rotation - cart. axis [0,1,0]        

 cryst.   s( 3) = (    -1          0          0      )
                  (     0          1          0      )
                  (     0          0         -1      )

 cart.    s( 3) = ( -1.0000000  0.0000000  0.0000000 )
                  (  0.0000000  1.0000000  0.0000000 )
                  (  0.0000000  0.0000000 -1.0000000 )


      isym =  4     180 deg rotation - cart. axis [1,0,0]        

 cryst.   s( 4) = (     1          0          0      )
                  (     0         -1          0      )
                  (     0          0         -1      )

 cart.    s( 4) = (  1.0000000  0.0000000  0.0000000 )
                  (  0.0000000 -1.0000000  0.0000000 )
                  (  0.0000000  0.0000000 -1.0000000 )


      isym =  5     180 deg rotation - cart. axis [1,1,0]        

 cryst.   s( 5) = (     0          1          0      )
                  (     1          0          0      )
                  (     0          0         -1      )

 cart.    s( 5) = (  0.0000000  1.0000000  0.0000000 )
                  (  1.0000000  0.0000000  0.0000000 )
                  (  0.0000000  0.0000000 -1.0000000 )


      isym =  6     180 deg rotation - cart. axis [1,-1,0]       

 cryst.   s( 6) = (     0         -1          0      )
                  (    -1          0          0      )
                  (     0          0         -1      )

 cart.    s( 6) = (  0.0000000 -1.0000000  0.0000000 )
                  ( -1.0000000  0.0000000  0.0000000 )
                  (  0.0000000  0.0000000 -1.0000000 )


      isym =  7      90 deg rotation - cart. axis [0,0,-1]       

 cryst.   s( 7) = (     0         -1          0      )
                  (     1          0          0      )
                  (     0          0          1      )

 cart.    s( 7) = (  0.0000000  1.0000000  0.0000000 )
                  ( -1.0000000  0.0000000  0.0000000 )
                  (  0.0000000  0.0000000  1.0000000 )


      isym =  8      90 deg rotation - cart. axis [0,0,1]        

 cryst.   s( 8) = (     0          1          0      )
                  (    -1          0          0      )
                  (     0          0          1      )

 cart.    s( 8) = (  0.0000000 -1.0000000  0.0000000 )
                  (  1.0000000  0.0000000  0.0000000 )
                  (  0.0000000  0.0000000  1.0000000 )


      isym =  9     180 deg rotation - cart. axis [1,0,1]        

 cryst.   s( 9) = (     0          0          1      )
                  (     0         -1          0      )
                  (     1          0          0      )

 cart.    s( 9) = (  0.0000000  0.0000000  1.0000000 )
                  (  0.0000000 -1.0000000  0.0000000 )
                  (  1.0000000  0.0000000  0.0000000 )


      isym = 10     180 deg rotation - cart. axis [-1,0,1]       

 cryst.   s(10) = (     0          0         -1      )
                  (     0         -1          0      )
                  (    -1          0          0      )

 cart.    s(10) = (  0.0000000  0.0000000 -1.0000000 )
                  (  0.0000000 -1.0000000  0.0000000 )
                  ( -1.0000000  0.0000000  0.0000000 )


      isym = 11      90 deg rotation - cart. axis [0,1,0]        

 cryst.   s(11) = (     0          0         -1      )
                  (     0          1          0      )
                  (     1          0          0      )

 cart.    s(11) = (  0.0000000  0.0000000  1.0000000 )
                  (  0.0000000  1.0000000  0.0000000 )
                  ( -1.0000000  0.0000000  0.0000000 )


      isym = 12      90 deg rotation - cart. axis [0,-1,0]       

 cryst.   s(12) = (     0          0          1      )
                  (     0          1          0      )
                  (    -1          0          0      )

 cart.    s(12) = (  0.0000000  0.0000000 -1.0000000 )
                  (  0.0000000  1.0000000  0.0000000 )
                  (  1.0000000  0.0000000  0.0000000 )


      isym = 13     180 deg rotation - cart. axis [0,1,1]        

 cryst.   s(13) = (    -1          0          0      )
                  (     0          0          1      )
                  (     0          1          0      )

 cart.    s(13) = ( -1.0000000  0.0000000  0.0000000 )
                  (  0.0000000  0.0000000  1.0000000 )
                  (  0.0000000  1.0000000  0.0000000 )


      isym = 14     180 deg rotation - cart. axis [0,1,-1]       

 cryst.   s(14) = (    -1          0          0      )
                  (     0          0         -1      )
                  (     0         -1          0      )

 cart.    s(14) = ( -1.0000000  0.0000000  0.0000000 )
                  (  0.0000000  0.0000000 -1.0000000 )
                  (  0.0000000 -1.0000000  0.0000000 )


      isym = 15      90 deg rotation - cart. axis [-1,0,0]       

 cryst.   s(15) = (     1          0          0      )
                  (     0          0         -1      )
                  (     0          1          0      )

 cart.    s(15) = (  1.0000000  0.0000000  0.0000000 )
                  (  0.0000000  0.0000000  1.0000000 )
                  (  0.0000000 -1.0000000  0.0000000 )


      isym = 16      90 deg rotation - cart. axis [1,0,0]        

 cryst.   s(16) = (     1          0          0      )
                  (     0          0          1      )
                  (     0         -1          0      )

 cart.    s(16) = (  1.0000000  0.0000000  0.0000000 )
                  (  0.0000000  0.0000000 -1.0000000 )
                  (  0.0000000  1.0000000  0.0000000 )


      isym = 17     120 deg rotation - cart. axis [-1,-1,-1]     

 cryst.   s(17) = (     0          0          1      )
                  (     1          0          0      )
                  (     0          1          0      )

 cart.    s(17) = (  0.0000000  1.0000000  0.0000000 )
                  (  0.0000000  0.0000000  1.0000000 )
                  (  1.0000000  0.0000000  0.0000000 )


      isym = 18     120 deg rotation - cart. axis [-1,1,1]       

 cryst.   s(18) = (     0          0         -1      )
                  (    -1          0          0      )
                  (     0          1          0      )

 cart.    s(18) = (  0.0000000 -1.0000000  0.0000000 )
                  (  0.0000000  0.0000000  1.0000000 )
                  ( -1.0000000  0.0000000  0.0000000 )


      isym = 19     120 deg rotation - cart. axis [1,1,-1]       

 cryst.   s(19) = (     0          0         -1      )
                  (     1          0          0      )
                  (     0         -1          0      )

 cart.    s(19) = (  0.0000000  1.0000000  0.0000000 )
                  (  0.0000000  0.0000000 -1.0000000 )
                  ( -1.0000000  0.0000000  0.0000000 )


      isym = 20     120 deg rotation - cart. axis [1,-1,1]       

 cryst.   s(20) = (     0          0          1      )
                  (    -1          0          0      )
                  (     0         -1          0      )

 cart.    s(20) = (  0.0000000 -1.0000000  0.0000000 )
                  (  0.0000000  0.0000000 -1.0000000 )
                  (  1.0000000  0.0000000  0.0000000 )


      isym = 21     120 deg rotation - cart. axis [1,1,1]        

 cryst.   s(21) = (     0          1          0      )
                  (     0          0          1      )
                  (     1          0          0      )

 cart.    s(21) = (  0.0000000  0.0000000  1.0000000 )
                  (  1.0000000  0.0000000  0.0000000 )
                  (  0.0000000  1.0000000  0.0000000 )


      isym = 22     120 deg rotation - cart. axis [-1,1,-1]      

 cryst.   s(22) = (     0         -1          0      )
                  (     0          0         -1      )
                  (     1          0          0      )

 cart.    s(22) = (  0.0000000  0.0000000  1.0000000 )
                  ( -1.0000000  0.0000000  0.0000000 )
                  (  0.0000000 -1.0000000  0.0000000 )


      isym = 23     120 deg rotation - cart. axis [1,-1,-1]      

 cryst.   s(23) = (     0         -1          0      )
                  (     0          0          1      )
                  (    -1          0          0      )

 cart.    s(23) = (  0.0000000  0.0000000 -1.0000000 )
                  ( -1.0000000  0.0000000  0.0000000 )
                  (  0.0000000  1.0000000  0.0000000 )


      isym = 24     120 deg rotation - cart. axis [-1,-1,1]      

 cryst.   s(24) = (     0          1          0      )
                  (     0          0         -1      )
                  (    -1          0          0      )

 cart.    s(24) = (  0.0000000  0.0000000 -1.0000000 )
                  (  1.0000000  0.0000000  0.0000000 )
                  (  0.0000000 -1.0000000  0.0000000 )


      isym = 25     inversion                                    

 cryst.   s(25) = (    -1          0          0      )
                  (     0         -1          0      )
                  (     0          0         -1      )

 cart.    s(25) = ( -1.0000000  0.0000000  0.0000000 )
                  (  0.0000000 -1.0000000  0.0000000 )
                  (  0.0000000  0.0000000 -1.0000000 )


      isym = 26     inv. 180 deg rotation - cart. axis [0,0,1]   

 cryst.   s(26) = (     1          0          0      )
                  (     0          1          0      )
                  (     0          0         -1      )

 cart.    s(26) = (  1.0000000  0.0000000  0.0000000 )
                  (  0.0000000  1.0000000  0.0000000 )
                  (  0.0000000  0.0000000 -1.0000000 )


      isym = 27     inv. 180 deg rotation - cart. axis [0,1,0]   

 cryst.   s(27) = (     1          0          0      )
                  (     0         -1          0      )
                  (     0          0          1      )

 cart.    s(27) = (  1.0000000  0.0000000  0.0000000 )
                  (  0.0000000 -1.0000000  0.0000000 )
                  (  0.0000000  0.0000000  1.0000000 )


      isym = 28     inv. 180 deg rotation - cart. axis [1,0,0]   

 cryst.   s(28) = (    -1          0          0      )
                  (     0          1          0      )
                  (     0          0          1      )

 cart.    s(28) = ( -1.0000000  0.0000000  0.0000000 )
                  (  0.0000000  1.0000000  0.0000000 )
                  (  0.0000000  0.0000000  1.0000000 )


      isym = 29     inv. 180 deg rotation - cart. axis [1,1,0]   

 cryst.   s(29) = (     0         -1          0      )
                  (    -1          0          0      )
                  (     0          0          1      )

 cart.    s(29) = (  0.0000000 -1.0000000  0.0000000 )
                  ( -1.0000000  0.0000000  0.0000000 )
                  (  0.0000000  0.0000000  1.0000000 )


      isym = 30     inv. 180 deg rotation - cart. axis [1,-1,0]  

 cryst.   s(30) = (     0          1          0      )
                  (     1          0          0      )
                  (     0          0          1      )

 cart.    s(30) = (  0.0000000  1.0000000  0.0000000 )
                  (  1.0000000  0.0000000  0.0000000 )
                  (  0.0000000  0.0000000  1.0000000 )


      isym = 31     inv.  90 deg rotation - cart. axis [0,0,-1]  

 cryst.   s(31) = (     0          1          0      )
                  (    -1          0          0      )
                  (     0          0         -1      )

 cart.    s(31) = (  0.0000000 -1.0000000  0.0000000 )
                  (  1.0000000  0.0000000  0.0000000 )
                  (  0.0000000  0.0000000 -1.0000000 )


      isym = 32     inv.  90 deg rotation - cart. axis [0,0,1]   

 cryst.   s(32) = (     0         -1          0      )
                  (     1          0          0      )
                  (     0          0         -1      )

 cart.    s(32) = (  0.0000000  1.0000000  0.0000000 )
                  ( -1.0000000  0.0000000  0.0000000 )
                  (  0.0000000  0.0000000 -1.0000000 )


      isym = 33     inv. 180 deg rotation - cart. axis [1,0,1]   

 cryst.   s(33) = (     0          0         -1      )
                  (     0          1          0      )
                  (    -1          0          0      )

 cart.    s(33) = (  0.0000000  0.0000000 -1.0000000 )
                  (  0.0000000  1.0000000  0.0000000 )
                  ( -1.0000000  0.0000000  0.0000000 )


      isym = 34     inv. 180 deg rotation - cart. axis [-1,0,1]  

 cryst.   s(34) = (     0          0          1      )
                  (     0          1          0      )
                  (     1          0          0      )

 cart.    s(34) = (  0.0000000  0.0000000  1.0000000 )
                  (  0.0000000  1.0000000  0.0000000 )
                  (  1.0000000  0.0000000  0.0000000 )


      isym = 35     inv.  90 deg rotation - cart. axis [0,1,0]   

 cryst.   s(35) = (     0          0          1      )
                  (     0         -1          0      )
                  (    -1          0          0      )

 cart.    s(35) = (  0.0000000  0.0000000 -1.0000000 )
                  (  0.0000000 -1.0000000  0.0000000 )
                  (  1.0000000  0.0000000  0.0000000 )


      isym = 36     inv.  90 deg rotation - cart. axis [0,-1,0]  

 cryst.   s(36) = (     0          0         -1      )
                  (     0         -1          0      )
                  (     1          0          0      )

 cart.    s(36) = (  0.0000000  0.0000000  1.0000000 )
                  (  0.0000000 -1.0000000  0.0000000 )
                  ( -1.0000000  0.0000000  0.0000000 )


      isym = 37     inv. 180 deg rotation - cart. axis [0,1,1]   

 cryst.   s(37) = (     1          0          0      )
                  (     0          0         -1      )
                  (     0         -1          0      )

 cart.    s(37) = (  1.0000000  0.0000000  0.0000000 )
                  (  0.0000000  0.0000000 -1.0000000 )
                  (  0.0000000 -1.0000000  0.0000000 )


      isym = 38     inv. 180 deg rotation - cart. axis [0,1,-1]  

 cryst.   s(38) = (     1          0          0      )
                  (     0          0          1      )
                  (     0          1          0      )

 cart.    s(38) = (  1.0000000  0.0000000  0.0000000 )
                  (  0.0000000  0.0000000  1.0000000 )
                  (  0.0000000  1.0000000  0.0000000 )


      isym = 39     inv.  90 deg rotation - cart. axis [-1,0,0]  

 cryst.   s(39) = (    -1          0          0      )
                  (     0          0          1      )
                  (     0         -1          0      )

 cart.    s(39) = ( -1.0000000  0.0000000  0.0000000 )
                  (  0.0000000  0.0000000 -1.0000000 )
                  (  0.0000000  1.0000000  0.0000000 )


      isym = 40     inv.  90 deg rotation - cart. axis [1,0,0]   

 cryst.   s(40) = (    -1          0          0      )
                  (     0          0         -1      )
                  (     0          1          0      )

 cart.    s(40) = ( -1.0000000  0.0000000  0.0000000 )
                  (  0.0000000  0.0000000  1.0000000 )
                  (  0.0000000 -1.0000000  0.0000000 )


      isym = 41     inv. 120 deg rotation - cart. axis [-1,-1,-1]

 cryst.   s(41) = (     0          0         -1      )
                  (    -1          0          0      )
                  (     0         -1          0      )

 cart.    s(41) = (  0.0000000 -1.0000000  0.0000000 )
                  (  0.0000000  0.0000000 -1.0000000 )
                  ( -1.0000000  0.0000000  0.0000000 )


      isym = 42     inv. 120 deg rotation - cart. axis [-1,1,1]  

 cryst.   s(42) = (     0          0          1      )
                  (     1          0          0      )
                  (     0         -1          0      )

 cart.    s(42) = (  0.0000000  1.0000000  0.0000000 )
                  (  0.0000000  0.0000000 -1.0000000 )
                  (  1.0000000  0.0000000  0.0000000 )


      isym = 43     inv. 120 deg rotation - cart. axis [1,1,-1]  

 cryst.   s(43) = (     0          0          1      )
                  (    -1          0          0      )
                  (     0          1          0      )

 cart.    s(43) = (  0.0000000 -1.0000000  0.0000000 )
                  (  0.0000000  0.0000000  1.0000000 )
                  (  1.0000000  0.0000000  0.0000000 )


      isym = 44     inv. 120 deg rotation - cart. axis [1,-1,1]  

 cryst.   s(44) = (     0          0         -1      )
                  (     1          0          0      )
                  (     0          1          0      )

 cart.    s(44) = (  0.0000000  1.0000000  0.0000000 )
                  (  0.0000000  0.0000000  1.0000000 )
                  ( -1.0000000  0.0000000  0.0000000 )


      isym = 45     inv. 120 deg rotation - cart. axis [1,1,1]   

 cryst.   s(45) = (     0         -1          0      )
                  (     0          0         -1      )
                  (    -1          0          0      )

 cart.    s(45) = (  0.0000000  0.0000000 -1.0000000 )
                  ( -1.0000000  0.0000000  0.0000000 )
                  (  0.0000000 -1.0000000  0.0000000 )


      isym = 46     inv. 120 deg rotation - cart. axis [-1,1,-1] 

 cryst.   s(46) = (     0          1          0      )
                  (     0          0          1      )
                  (    -1          0          0      )

 cart.    s(46) = (  0.0000000  0.0000000 -1.0000000 )
                  (  1.0000000  0.0000000  0.0000000 )
                  (  0.0000000  1.0000000  0.0000000 )


      isym = 47     inv. 120 deg rotation - cart. axis [1,-1,-1] 

 cryst.   s(47) = (     0          1          0      )
                  (     0          0         -1      )
                  (     1          0          0      )

 cart.    s(47) = (  0.0000000  0.0000000  1.0000000 )
                  (  1.0000000  0.0000000  0.0000000 )
                  (  0.0000000 -1.0000000  0.0000000 )


      isym = 48     inv. 120 deg rotation - cart. axis [-1,-1,1] 

 cryst.   s(48) = (     0         -1          0      )
                  (     0          0          1      )
                  (     1          0          0      )

 cart.    s(48) = (  0.0000000  0.0000000  1.0000000 )
                  ( -1.0000000  0.0000000  0.0000000 )
                  (  0.0000000  1.0000000  0.0000000 )


   Cartesian axes

     site n.     atom                  positions (alat units)
         1           Mg  tau(   1) = (   0.2500000   0.7500000   0.2500000  )
         2           Mg  tau(   2) = (   0.7500000   0.7500000   0.2500000  )
         3           Mg  tau(   3) = (   0.2500000   0.2500000   0.7500000  )
         4           Mg  tau(   4) = (   0.7500000   0.2500000   0.7500000  )
         5           Mg  tau(   5) = (   0.7500000   0.7500000   0.7500000  )
         6           Mg  tau(   6) = (   0.2500000   0.7500000   0.7500000  )
         7           Mg  tau(   7) = (   0.7500000   0.2500000   0.2500000  )
         8           Mg  tau(   8) = (   0.2500000   0.2500000   0.2500000  )
         9           H   tau(   9) = (   0.0000000   0.0000000   0.7469588  )
        10           H   tau(  10) = (   0.0000000   0.7530412   0.5000000  )
        11           H   tau(  11) = (   0.7530412   0.0000000   0.5000000  )
        12           H   tau(  12) = (   0.0000000   0.0000000   0.2530412  )
        13           H   tau(  13) = (   0.0000000   0.7469588   0.0000000  )
        14           H   tau(  14) = (   0.2469588   0.0000000   0.5000000  )
        15           H   tau(  15) = (   0.0000000   0.5000000   0.2469588  )
        16           H   tau(  16) = (   0.0000000   0.2530412   0.0000000  )
        17           H   tau(  17) = (   0.7530412   0.5000000   0.0000000  )
        18           H   tau(  18) = (   0.0000000   0.5000000   0.7530412  )
        19           H   tau(  19) = (   0.0000000   0.2469588   0.5000000  )
        20           H   tau(  20) = (   0.2469588   0.5000000   0.0000000  )
        21           H   tau(  21) = (   0.5000000   0.0000000   0.2469588  )
        22           H   tau(  22) = (   0.5000000   0.7530412   0.0000000  )
        23           H   tau(  23) = (   0.2530412   0.0000000   0.0000000  )
        24           H   tau(  24) = (   0.5000000   0.0000000   0.7530412  )
        25           H   tau(  25) = (   0.5000000   0.7469588   0.5000000  )
        26           H   tau(  26) = (   0.7469588   0.0000000   0.0000000  )
        27           H   tau(  27) = (   0.5000000   0.5000000   0.7469588  )
        28           H   tau(  28) = (   0.5000000   0.2530412   0.5000000  )
        29           H   tau(  29) = (   0.2530412   0.5000000   0.5000000  )
        30           H   tau(  30) = (   0.5000000   0.5000000   0.2530412  )
        31           H   tau(  31) = (   0.5000000   0.2469588   0.0000000  )
        32           H   tau(  32) = (   0.7469588   0.5000000   0.5000000  )
        33           Ru  tau(  33) = (   0.0000000   0.0000000   0.0000000  )
        34           Ru  tau(  34) = (   0.0000000   0.5000000   0.5000000  )
        35           Ru  tau(  35) = (   0.5000000   0.0000000   0.5000000  )
        36           Ru  tau(  36) = (   0.5000000   0.5000000   0.0000000  )

   Crystallographic axes

     site n.     atom                  positions (cryst. coord.)
         1           Mg  tau(   1) = (  0.2500000  0.7500000  0.2500000  )
         2           Mg  tau(   2) = (  0.7500000  0.7500000  0.2500000  )
         3           Mg  tau(   3) = (  0.2500000  0.2500000  0.7500000  )
         4           Mg  tau(   4) = (  0.7500000  0.2500000  0.7500000  )
         5           Mg  tau(   5) = (  0.7500000  0.7500000  0.7500000  )
         6           Mg  tau(   6) = (  0.2500000  0.7500000  0.7500000  )
         7           Mg  tau(   7) = (  0.7500000  0.2500000  0.2500000  )
         8           Mg  tau(   8) = (  0.2500000  0.2500000  0.2500000  )
         9           H   tau(   9) = (  0.0000000  0.0000000  0.7469588  )
        10           H   tau(  10) = (  0.0000000  0.7530412  0.5000000  )
        11           H   tau(  11) = (  0.7530412  0.0000000  0.5000000  )
        12           H   tau(  12) = (  0.0000000  0.0000000  0.2530412  )
        13           H   tau(  13) = (  0.0000000  0.7469588  0.0000000  )
        14           H   tau(  14) = (  0.2469588  0.0000000  0.5000000  )
        15           H   tau(  15) = (  0.0000000  0.5000000  0.2469588  )
        16           H   tau(  16) = (  0.0000000  0.2530412  0.0000000  )
        17           H   tau(  17) = (  0.7530412  0.5000000  0.0000000  )
        18           H   tau(  18) = (  0.0000000  0.5000000  0.7530412  )
        19           H   tau(  19) = (  0.0000000  0.2469588  0.5000000  )
        20           H   tau(  20) = (  0.2469588  0.5000000  0.0000000  )
        21           H   tau(  21) = (  0.5000000  0.0000000  0.2469588  )
        22           H   tau(  22) = (  0.5000000  0.7530412  0.0000000  )
        23           H   tau(  23) = (  0.2530412  0.0000000  0.0000000  )
        24           H   tau(  24) = (  0.5000000  0.0000000  0.7530412  )
        25           H   tau(  25) = (  0.5000000  0.7469588  0.5000000  )
        26           H   tau(  26) = (  0.7469588  0.0000000  0.0000000  )
        27           H   tau(  27) = (  0.5000000  0.5000000  0.7469588  )
        28           H   tau(  28) = (  0.5000000  0.2530412  0.5000000  )
        29           H   tau(  29) = (  0.2530412  0.5000000  0.5000000  )
        30           H   tau(  30) = (  0.5000000  0.5000000  0.2530412  )
        31           H   tau(  31) = (  0.5000000  0.2469588  0.0000000  )
        32           H   tau(  32) = (  0.7469588  0.5000000  0.5000000  )
        33           Ru  tau(  33) = (  0.0000000  0.0000000  0.0000000  )
        34           Ru  tau(  34) = (  0.0000000  0.5000000  0.5000000  )
        35           Ru  tau(  35) = (  0.5000000  0.0000000  0.5000000  )
        36           Ru  tau(  36) = (  0.5000000  0.5000000  0.0000000  )

     number of k points=    10  Gaussian smearing, width (Ry)=  0.0200
                       cart. coord. in units 2pi/alat
        k(    1) = (   0.0000000   0.0000000   0.0000000), wk =   0.0160000
        k(    2) = (   0.0000000   0.0000000   0.2000000), wk =   0.0960000
        k(    3) = (   0.0000000   0.0000000   0.4000000), wk =   0.0960000
        k(    4) = (   0.0000000   0.2000000   0.2000000), wk =   0.1920000
        k(    5) = (   0.0000000   0.2000000   0.4000000), wk =   0.3840000
        k(    6) = (   0.0000000   0.4000000   0.4000000), wk =   0.1920000
        k(    7) = (   0.2000000   0.2000000   0.2000000), wk =   0.1280000
        k(    8) = (   0.2000000   0.2000000   0.4000000), wk =   0.3840000
        k(    9) = (   0.2000000   0.4000000   0.4000000), wk =   0.3840000
        k(   10) = (   0.4000000   0.4000000   0.4000000), wk =   0.1280000

                       cryst. coord.
        k(    1) = (   0.0000000   0.0000000   0.0000000), wk =   0.0160000
        k(    2) = (   0.0000000   0.0000000   0.2000000), wk =   0.0960000
        k(    3) = (   0.0000000   0.0000000   0.4000000), wk =   0.0960000
        k(    4) = (   0.0000000   0.2000000   0.2000000), wk =   0.1920000
        k(    5) = (   0.0000000   0.2000000   0.4000000), wk =   0.3840000
        k(    6) = (   0.0000000   0.4000000   0.4000000), wk =   0.1920000
        k(    7) = (   0.2000000   0.2000000   0.2000000), wk =   0.1280000
        k(    8) = (   0.2000000   0.2000000   0.4000000), wk =   0.3840000
        k(    9) = (   0.2000000   0.4000000   0.4000000), wk =   0.3840000
        k(   10) = (   0.4000000   0.4000000   0.4000000), wk =   0.1280000

     Dense  grid:  1160031 G-vectors     FFT dimensions: ( 135, 135, 135)

     Smooth grid:   223135 G-vectors     FFT dimensions: (  75,  75,  75)

     Dynamical RAM for                 wfc:       0.82 MB

     Dynamical RAM for     wfc (w. buffer):       4.95 MB

     Dynamical RAM for           str. fact:       1.66 MB

     Dynamical RAM for           local pot:       0.00 MB

     Dynamical RAM for          nlocal pot:       2.45 MB

     Dynamical RAM for                qrad:       7.91 MB

     Dynamical RAM for          rho,v,vnew:       3.75 MB

     Dynamical RAM for               rhoin:       1.25 MB

     Dynamical RAM for            rho*nmix:       8.85 MB

     Dynamical RAM for           G-vectors:       2.13 MB

     Dynamical RAM for          h,s,v(r/c):       0.70 MB

     Dynamical RAM for          <psi|beta>:       0.17 MB

     Dynamical RAM for                 psi:       1.65 MB

     Dynamical RAM for                hpsi:       1.65 MB

     Dynamical RAM for                spsi:       1.65 MB

     Dynamical RAM for      wfcinit/wfcrot:       3.78 MB

     Dynamical RAM for           addusdens:      58.36 MB

     Dynamical RAM for          addusforce:      71.18 MB

     Dynamical RAM for         addusstress:      55.73 MB

     Estimated static dynamical RAM per process >      29.77 MB

     Estimated max dynamical RAM per process >     109.80 MB

     Estimated total dynamical RAM >       6.59 GB

     Initial potential from superposition of free atoms

     starting charge     103.9896, renormalised to     104.0000
     Starting wfcs are  128 randomized atomic wfcs
     Checking if some PAW data can be deallocated... 
       PAW data deallocated on   48 nodes for type:  2
       PAW data deallocated on   60 nodes for type:  3

     total cpu time spent up to now is        2.9 secs

     Self-consistent Calculation

     iteration #  1     ecut=    90.00 Ry     beta= 0.40
     Davidson diagonalization with overlap

---- Real-time Memory Report at c_bands before calling an iterative solver
           134 MiB given to the printing process from OS
             0 MiB allocation reported by mallinfo(arena+hblkhd)
        219796 MiB available memory on the node where the printing process lives
------------------
     ethr =  1.00E-02,  avg # of iterations =  2.7

     total cpu time spent up to now is        4.7 secs

     total energy              =   -1998.57735478 Ry
     estimated scf accuracy    <       1.37508758 Ry

     iteration #  2     ecut=    90.00 Ry     beta= 0.40
     Davidson diagonalization with overlap

---- Real-time Memory Report at c_bands before calling an iterative solver
           159 MiB given to the printing process from OS
             0 MiB allocation reported by mallinfo(arena+hblkhd)
        218125 MiB available memory on the node where the printing process lives
------------------
     ethr =  1.32E-03,  avg # of iterations =  2.0

     total cpu time spent up to now is        6.2 secs

     total energy              =   -1998.50700475 Ry
     estimated scf accuracy    <       0.33578558 Ry

     iteration #  3     ecut=    90.00 Ry     beta= 0.40
     Davidson diagonalization with overlap

---- Real-time Memory Report at c_bands before calling an iterative solver
           161 MiB given to the printing process from OS
             0 MiB allocation reported by mallinfo(arena+hblkhd)
        216000 MiB available memory on the node where the printing process lives
------------------
     ethr =  3.23E-04,  avg # of iterations =  2.8

     total cpu time spent up to now is        8.0 secs

     total energy              =   -1998.56753002 Ry
     estimated scf accuracy    <       0.00442900 Ry

     iteration #  4     ecut=    90.00 Ry     beta= 0.40
     Davidson diagonalization with overlap

---- Real-time Memory Report at c_bands before calling an iterative solver
           161 MiB given to the printing process from OS
             0 MiB allocation reported by mallinfo(arena+hblkhd)
        219217 MiB available memory on the node where the printing process lives
------------------
     c_bands:  1 eigenvalues not converged
     c_bands:  2 eigenvalues not converged
     ethr =  4.26E-06,  avg # of iterations = 14.2

     total cpu time spent up to now is       11.5 secs

     total energy              =   -1998.57479258 Ry
     estimated scf accuracy    <       0.00239906 Ry

     iteration #  5     ecut=    90.00 Ry     beta= 0.40
     Davidson diagonalization with overlap

---- Real-time Memory Report at c_bands before calling an iterative solver
           162 MiB given to the printing process from OS
             0 MiB allocation reported by mallinfo(arena+hblkhd)
        217076 MiB available memory on the node where the printing process lives
------------------
     ethr =  2.31E-06,  avg # of iterations =  5.4

     total cpu time spent up to now is       13.5 secs

     total energy              =   -1998.57480874 Ry
     estimated scf accuracy    <       0.00086923 Ry

     iteration #  6     ecut=    90.00 Ry     beta= 0.40
     Davidson diagonalization with overlap

---- Real-time Memory Report at c_bands before calling an iterative solver
           163 MiB given to the printing process from OS
             0 MiB allocation reported by mallinfo(arena+hblkhd)
        215600 MiB available memory on the node where the printing process lives
------------------
     c_bands:  1 eigenvalues not converged
     ethr =  8.36E-07,  avg # of iterations =  8.4

     total cpu time spent up to now is       15.9 secs

     total energy              =   -1998.57501134 Ry
     estimated scf accuracy    <       0.00056619 Ry

     iteration #  7     ecut=    90.00 Ry     beta= 0.40
     Davidson diagonalization with overlap

---- Real-time Memory Report at c_bands before calling an iterative solver
           164 MiB given to the printing process from OS
             0 MiB allocation reported by mallinfo(arena+hblkhd)
        213885 MiB available memory on the node where the printing process lives
------------------
     ethr =  5.44E-07,  avg # of iterations =  2.0

     total cpu time spent up to now is       17.5 secs

     total energy              =   -1998.57503709 Ry
     estimated scf accuracy    <       0.00005387 Ry

     iteration #  8     ecut=    90.00 Ry     beta= 0.40
     Davidson diagonalization with overlap

---- Real-time Memory Report at c_bands before calling an iterative solver
           164 MiB given to the printing process from OS
             0 MiB allocation reported by mallinfo(arena+hblkhd)
        212850 MiB available memory on the node where the printing process lives
------------------
     c_bands:  2 eigenvalues not converged
     ethr =  5.18E-08,  avg # of iterations =  9.8

     total cpu time spent up to now is       20.2 secs

     total energy              =   -1998.57507572 Ry
     estimated scf accuracy    <       0.00004883 Ry

     iteration #  9     ecut=    90.00 Ry     beta= 0.40
     Davidson diagonalization with overlap

---- Real-time Memory Report at c_bands before calling an iterative solver
           165 MiB given to the printing process from OS
             0 MiB allocation reported by mallinfo(arena+hblkhd)
        212837 MiB available memory on the node where the printing process lives
------------------
     c_bands:  1 eigenvalues not converged
     ethr =  4.70E-08,  avg # of iterations =  4.6

     total cpu time spent up to now is       22.1 secs

     total energy              =   -1998.57508278 Ry
     estimated scf accuracy    <       0.00000302 Ry

     iteration # 10     ecut=    90.00 Ry     beta= 0.40
     Davidson diagonalization with overlap

---- Real-time Memory Report at c_bands before calling an iterative solver
           165 MiB given to the printing process from OS
             0 MiB allocation reported by mallinfo(arena+hblkhd)
        212828 MiB available memory on the node where the printing process lives
------------------
     ethr =  2.90E-09,  avg # of iterations =  8.8

     total cpu time spent up to now is       24.8 secs

     total energy              =   -1998.57508513 Ry
     estimated scf accuracy    <       0.00000074 Ry

     iteration # 11     ecut=    90.00 Ry     beta= 0.40
     Davidson diagonalization with overlap

---- Real-time Memory Report at c_bands before calling an iterative solver
           165 MiB given to the printing process from OS
             0 MiB allocation reported by mallinfo(arena+hblkhd)
        212832 MiB available memory on the node where the printing process lives
------------------
     ethr =  7.15E-10,  avg # of iterations =  5.7

     total cpu time spent up to now is       27.0 secs

     total energy              =   -1998.57508525 Ry
     estimated scf accuracy    <       0.00000035 Ry

     iteration # 12     ecut=    90.00 Ry     beta= 0.40
     Davidson diagonalization with overlap

---- Real-time Memory Report at c_bands before calling an iterative solver
           166 MiB given to the printing process from OS
             0 MiB allocation reported by mallinfo(arena+hblkhd)
        216008 MiB available memory on the node where the printing process lives
------------------
     ethr =  3.34E-10,  avg # of iterations =  5.6

     total cpu time spent up to now is       29.2 secs

     total energy              =   -1998.57508540 Ry
     estimated scf accuracy    <       0.00000023 Ry

     iteration # 13     ecut=    90.00 Ry     beta= 0.40
     Davidson diagonalization with overlap

---- Real-time Memory Report at c_bands before calling an iterative solver
           166 MiB given to the printing process from OS
             0 MiB allocation reported by mallinfo(arena+hblkhd)
        216006 MiB available memory on the node where the printing process lives
------------------
     ethr =  2.22E-10,  avg # of iterations =  3.7

     total cpu time spent up to now is       31.0 secs

     total energy              =   -1998.57508542 Ry
     estimated scf accuracy    <       0.00000003 Ry

     iteration # 14     ecut=    90.00 Ry     beta= 0.40
     Davidson diagonalization with overlap

---- Real-time Memory Report at c_bands before calling an iterative solver
           166 MiB given to the printing process from OS
             0 MiB allocation reported by mallinfo(arena+hblkhd)
        216006 MiB available memory on the node where the printing process lives
------------------
     ethr =  2.74E-11,  avg # of iterations = 10.5

     total cpu time spent up to now is       33.7 secs

     End of self-consistent calculation

          k = 0.0000 0.0000 0.0000 ( 28017 PWs)   bands (ev):

   -65.0574 -65.0573 -65.0573 -65.0573 -35.1699 -35.1699 -35.1699 -35.1688
   -35.1688 -35.1688 -35.1688 -35.1688 -35.1688 -35.1682 -35.1682 -35.1682
    -2.7095  -0.6224  -0.6224  -0.6224   1.3510   1.3510   1.3510   1.6063
     1.6063   1.6063   1.8614   1.8614   2.1996   2.1996   2.1996   3.1008
     3.1008   3.1008   3.1008   3.1008   3.1008   3.8345   3.8345   3.8345
     4.4567   4.4567   4.4567   4.5116   4.5116   4.5116   5.4551   5.4551
     5.4551   5.4551   5.4551   5.4551   8.4622   8.4622   8.4623  10.7789
    10.7789  10.7789  12.2784  12.2906  12.2906  12.2907

     occupation numbers 
     1.0000   1.0000   1.0000   1.0000   1.0000   1.0000   1.0000   1.0000
     1.0000   1.0000   1.0000   1.0000   1.0000   1.0000   1.0000   1.0000
     1.0000   1.0000   1.0000   1.0000   1.0000   1.0000   1.0000   1.0000
     1.0000   1.0000   1.0000   1.0000   1.0000   1.0000   1.0000   1.0000
     1.0000   1.0000   1.0000   1.0000   1.0000   1.0000   1.0000   1.0000
     1.0000   1.0000   1.0000   1.0000   1.0000   1.0000   1.0000   1.0000
     1.0000   1.0000   1.0000   1.0000   0.0000   0.0000   0.0000   0.0000
     0.0000   0.0000   0.0000   0.0000   0.0000   0.0000

          k = 0.0000 0.0000 0.2000 ( 27914 PWs)   bands (ev):

   -65.0574 -65.0573 -65.0573 -65.0573 -35.1697 -35.1697 -35.1697 -35.1689
   -35.1689 -35.1688 -35.1688 -35.1687 -35.1687 -35.1683 -35.1682 -35.1682
    -2.5722  -0.9114  -0.4951  -0.4951   0.9203   1.2780   1.2780   1.4418
     1.4418   1.6979   1.8919   2.0429   2.0429   2.1654   2.5234   2.6892
     2.6892   3.1599   3.1599   3.4763   3.4763   3.8931   4.0283   4.0283
     4.2624   4.2624   4.4343   4.4400   4.9207   4.9207   5.4026   5.4026
     5.4507   5.4507   5.4552   5.4552   8.4745   8.7623   8.7623  10.8143
    10.8589  10.8589  11.1263  11.6040  12.2198  12.6445

     occupation numbers 
     1.0000   1.0000   1.0000   1.0000   1.0000   1.0000   1.0000   1.0000
     1.0000   1.0000   1.0000   1.0000   1.0000   1.0000   1.0000   1.0000
     1.0000   1.0000   1.0000   1.0000   1.0000   1.0000   1.0000   1.0000
     1.0000   1.0000   1.0000   1.0000   1.0000   1.0000   1.0000   1.0000
     1.0000   1.0000   1.0000   1.0000   1.0000   1.0000   1.0000   1.0000
     1.0000   1.0000   1.0000   1.0000   1.0000   1.0000   1.0000   1.0000
     1.0000   1.0000   1.0000   1.0000   0.0000   0.0000   0.0000   0.0000
     0.0000   0.0000   0.0000   0.0000   0.0000   0.0000

          k = 0.0000 0.0000 0.4000 ( 27898 PWs)   bands (ev):

   -65.0574 -65.0573 -65.0573 -65.0573 -35.1695 -35.1695 -35.1693 -35.1691
   -35.1691 -35.1688 -35.1688 -35.1687 -35.1686 -35.1686 -35.1684 -35.1684
    -2.1724  -1.5618  -0.1553  -0.1553   0.6393   0.6393   0.9849   1.3291
     1.7101   1.7101   1.9736   1.9901   1.9901   2.0779   2.1405   2.1405
     3.3379   3.3379   3.5655   3.6325   3.6325   3.8487   3.8487   4.0519
     4.2229   4.2603   4.8245   4.8245   5.2121   5.2121   5.2421   5.2421
     5.4046   5.4046   5.4554   5.4554   8.7134   9.5745   9.5822   9.5822
    10.9337  11.1764  11.1810  11.1811  11.5209  11.8440

     occupation numbers 
     1.0000   1.0000   1.0000   1.0000   1.0000   1.0000   1.0000   1.0000
     1.0000   1.0000   1.0000   1.0000   1.0000   1.0000   1.0000   1.0000
     1.0000   1.0000   1.0000   1.0000   1.0000   1.0000   1.0000   1.0000
     1.0000   1.0000   1.0000   1.0000   1.0000   1.0000   1.0000   1.0000
     1.0000   1.0000   1.0000   1.0000   1.0000   1.0000   1.0000   1.0000
     1.0000   1.0000   1.0000   1.0000   1.0000   1.0000   1.0000   1.0000
     1.0000   1.0000   1.0000   1.0000   0.0000   0.0000   0.0000   0.0000
     0.0000   0.0000   0.0000   0.0000   0.0000   0.0000

          k = 0.0000 0.2000 0.2000 ( 27913 PWs)   bands (ev):

   -65.0574 -65.0573 -65.0573 -65.0573 -35.1696 -35.1696 -35.1696 -35.1690
   -35.1688 -35.1688 -35.1687 -35.1687 -35.1687 -35.1685 -35.1683 -35.1682
    -2.4352  -0.7773  -0.7773  -0.3684   0.8784   0.8784   0.9518   1.5315
     1.6667   1.7904   1.7930   1.8289   1.8289   2.4021   2.4021   2.7587
     2.7595   2.7595   3.6301   3.6301   3.6353   3.7141   3.7602   4.3048
     4.3048   4.4307   4.6047   4.8129   4.9330   4.9927   5.3720   5.4067
     5.4067   5.4408   5.4483   5.4483   8.7503   8.7503   8.9485  10.8913
    10.8913  10.9873  11.1793  11.1840  11.3911  12.4778

     occupation numbers 
     1.0000   1.0000   1.0000   1.0000   1.0000   1.0000   1.0000   1.0000
     1.0000   1.0000   1.0000   1.0000   1.0000   1.0000   1.0000   1.0000
     1.0000   1.0000   1.0000   1.0000   1.0000   1.0000   1.0000   1.0000
     1.0000   1.0000   1.0000   1.0000   1.0000   1.0000   1.0000   1.0000
     1.0000   1.0000   1.0000   1.0000   1.0000   1.0000   1.0000   1.0000
     1.0000   1.0000   1.0000   1.0000   1.0000   1.0000   1.0000   1.0000
     1.0000   1.0000   1.0000   1.0000   0.0000   0.0000   0.0000   0.0000
     0.0000   0.0000   0.0000   0.0000   0.0000   0.0000

          k = 0.0000 0.2000 0.4000 ( 27920 PWs)   bands (ev):

   -65.0574 -65.0573 -65.0573 -65.0573 -35.1695 -35.1694 -35.1693 -35.1693
   -35.1691 -35.1689 -35.1687 -35.1686 -35.1686 -35.1685 -35.1684 -35.1683
    -2.0365  -1.4266  -0.3902  -0.0439   0.3046   0.5555   0.9758   1.3413
     1.5390   1.6120   1.7922   1.7963   1.8349   2.2204   2.4605   2.6045
     2.9308   2.9666   3.2475   3.2972   4.0655   4.1219   4.1813   4.4188
     4.5588   4.7036   4.8433   4.8467   5.2066   5.2294   5.2332   5.2420
     5.3852   5.3958   5.4370   5.4425   8.9246   9.4657   9.4681   9.7091
    10.9904  11.1552  11.2055  11.2120  11.3874  11.5069

     occupation numbers 
     1.0000   1.0000   1.0000   1.0000   1.0000   1.0000   1.0000   1.0000
     1.0000   1.0000   1.0000   1.0000   1.0000   1.0000   1.0000   1.0000
     1.0000   1.0000   1.0000   1.0000   1.0000   1.0000   1.0000   1.0000
     1.0000   1.0000   1.0000   1.0000   1.0000   1.0000   1.0000   1.0000
     1.0000   1.0000   1.0000   1.0000   1.0000   1.0000   1.0000   1.0000
     1.0000   1.0000   1.0000   1.0000   1.0000   1.0000   1.0000   1.0000
     1.0000   1.0000   1.0000   1.0000   0.0000   0.0000   0.0000   0.0000
     0.0000   0.0000   0.0000   0.0000   0.0000   0.0000

          k = 0.0000 0.4000 0.4000 ( 27886 PWs)   bands (ev):

   -65.0574 -65.0573 -65.0573 -65.0573 -35.1694 -35.1694 -35.1694 -35.1692
   -35.1692 -35.1689 -35.1689 -35.1686 -35.1685 -35.1684 -35.1684 -35.1683
    -1.6403  -1.0324  -1.0324  -0.4264   0.3554   0.8020   0.8020   1.2734
     1.4194   1.4401   1.4539   1.4539   2.0502   2.4557   2.4557   2.7829
     2.8090   2.8090   2.8296   2.9713   4.6679   4.6679   4.7340   4.8483
     4.8825   4.8825   4.8900   5.0642   5.1439   5.2043   5.2494   5.2494
     5.2656   5.3795   5.3795   5.3904   9.4397   9.4397   9.4578   9.9405
    10.3129  10.7732  10.7732  10.9647  11.2010  11.2437

     occupation numbers 
     1.0000   1.0000   1.0000   1.0000   1.0000   1.0000   1.0000   1.0000
     1.0000   1.0000   1.0000   1.0000   1.0000   1.0000   1.0000   1.0000
     1.0000   1.0000   1.0000   1.0000   1.0000   1.0000   1.0000   1.0000
     1.0000   1.0000   1.0000   1.0000   1.0000   1.0000   1.0000   1.0000
     1.0000   1.0000   1.0000   1.0000   1.0000   1.0000   1.0000   1.0000
     1.0000   1.0000   1.0000   1.0000   1.0000   1.0000   1.0000   1.0000
     1.0000   1.0000   1.0000   1.0000   0.0000   0.0000   0.0000   0.0000
     0.0000   0.0000   0.0000   0.0000   0.0000   0.0000

          k = 0.2000 0.2000 0.2000 ( 27871 PWs)   bands (ev):

   -65.0574 -65.0573 -65.0573 -65.0573 -35.1696 -35.1696 -35.1696 -35.1689
   -35.1689 -35.1689 -35.1688 -35.1686 -35.1686 -35.1686 -35.1682 -35.1682
    -2.2988  -0.6443  -0.6443  -0.6443   0.7724   0.7724   0.7724   1.6810
     1.6810   1.7834   1.7834   1.7834   1.8098   1.8098   1.8098   2.9151
     3.1842   3.1842   3.1842   3.7869   3.7869   3.7869   4.3465   4.3465
     4.4845   4.4845   4.4845   4.8968   5.0542   5.0542   5.3782   5.3782
     5.3782   5.4363   5.4363   5.4363   8.9206   8.9206   8.9206  10.7973
    11.0027  11.0027  11.0027  11.2605  11.2605  12.4281

     occupation numbers 
     1.0000   1.0000   1.0000   1.0000   1.0000   1.0000   1.0000   1.0000
     1.0000   1.0000   1.0000   1.0000   1.0000   1.0000   1.0000   1.0000
     1.0000   1.0000   1.0000   1.0000   1.0000   1.0000   1.0000   1.0000
     1.0000   1.0000   1.0000   1.0000   1.0000   1.0000   1.0000   1.0000
     1.0000   1.0000   1.0000   1.0000   1.0000   1.0000   1.0000   1.0000
     1.0000   1.0000   1.0000   1.0000   1.0000   1.0000   1.0000   1.0000
     1.0000   1.0000   1.0000   1.0000   0.0000   0.0000   0.0000   0.0000
     0.0000   0.0000   0.0000   0.0000   0.0000   0.0000

          k = 0.2000 0.2000 0.4000 ( 27896 PWs)   bands (ev):

   -65.0574 -65.0573 -65.0573 -65.0573 -35.1696 -35.1696 -35.1695 -35.1691
   -35.1690 -35.1690 -35.1686 -35.1686 -35.1686 -35.1685 -35.1684 -35.1683
    -1.9015  -1.2931  -0.2602  -0.2602   0.3045   0.3045   0.9439   1.3480
     1.5375   1.5375   1.7117   1.7117   1.7163   1.7556   2.0635   2.3730
     3.1413   3.1413   3.8810   3.9798   4.0673   4.2223   4.2223   4.4122
     4.6655   4.8678   4.8678   4.9168   5.2101   5.2231   5.2231   5.2748
     5.3682   5.3866   5.4260   5.4260   9.0526   9.3747   9.3747   9.7689
    10.9050  11.0026  11.1945  11.1945  11.4454  11.4454

     occupation numbers 
     1.0000   1.0000   1.0000   1.0000   1.0000   1.0000   1.0000   1.0000
     1.0000   1.0000   1.0000   1.0000   1.0000   1.0000   1.0000   1.0000
     1.0000   1.0000   1.0000   1.0000   1.0000   1.0000   1.0000   1.0000
     1.0000   1.0000   1.0000   1.0000   1.0000   1.0000   1.0000   1.0000
     1.0000   1.0000   1.0000   1.0000   1.0000   1.0000   1.0000   1.0000
     1.0000   1.0000   1.0000   1.0000   1.0000   1.0000   1.0000   1.0000
     1.0000   1.0000   1.0000   1.0000   0.0000   0.0000   0.0000   0.0000
     0.0000   0.0000   0.0000   0.0000   0.0000   0.0000

          k = 0.2000 0.4000 0.4000 ( 27926 PWs)   bands (ev):

   -65.0574 -65.0573 -65.0573 -65.0573 -35.1697 -35.1696 -35.1696 -35.1694
   -35.1688 -35.1687 -35.1687 -35.1685 -35.1685 -35.1684 -35.1684 -35.1683
    -1.5084  -0.9058  -0.9058  -0.3246   0.1422   0.6621   0.6621   1.2285
     1.4214   1.4381   1.4449   1.4449   1.6456   1.7630   1.7630   1.8978
     3.5210   3.6993   3.6993   3.9603   4.6339   4.6339   4.7305   4.8144
     4.9173   4.9328   4.9328   5.0163   5.1621   5.2205   5.2418   5.2418
     5.2841   5.3631   5.3631   5.3740   9.3726   9.3737   9.3737   9.8014
    10.3861  10.7669  10.7669  10.9124  11.1428  11.3034

     occupation numbers 
     1.0000   1.0000   1.0000   1.0000   1.0000   1.0000   1.0000   1.0000
     1.0000   1.0000   1.0000   1.0000   1.0000   1.0000   1.0000   1.0000
     1.0000   1.0000   1.0000   1.0000   1.0000   1.0000   1.0000   1.0000
     1.0000   1.0000   1.0000   1.0000   1.0000   1.0000   1.0000   1.0000
     1.0000   1.0000   1.0000   1.0000   1.0000   1.0000   1.0000   1.0000
     1.0000   1.0000   1.0000   1.0000   1.0000   1.0000   1.0000   1.0000
     1.0000   1.0000   1.0000   1.0000   0.0000   0.0000   0.0000   0.0000
     0.0000   0.0000   0.0000   0.0000   0.0000   0.0000

          k = 0.4000 0.4000 0.4000 ( 27943 PWs)   bands (ev):

   -65.0574 -65.0573 -65.0573 -65.0573 -35.1698 -35.1698 -35.1698 -35.1697
   -35.1685 -35.1685 -35.1685 -35.1684 -35.1684 -35.1684 -35.1684 -35.1684
    -1.1282  -0.5733  -0.5733  -0.5733   0.2073   0.2073   0.2073   0.8099
     1.4266   1.4266   1.4277   1.4277   1.4277   1.4329   1.4329   1.4329
     4.4344   4.4344   4.4344   4.7319   4.7319   4.7319   4.7598   4.7598
     4.9152   5.0068   5.0068   5.0068   5.2019   5.2019   5.2019   5.2288
     5.2288   5.2638   5.2638   5.2638   9.3669   9.3669   9.3669   9.6324
    10.5684  10.5689  10.7689  10.8030  10.8077  10.8135

     occupation numbers 
     1.0000   1.0000   1.0000   1.0000   1.0000   1.0000   1.0000   1.0000
     1.0000   1.0000   1.0000   1.0000   1.0000   1.0000   1.0000   1.0000
     1.0000   1.0000   1.0000   1.0000   1.0000   1.0000   1.0000   1.0000
     1.0000   1.0000   1.0000   1.0000   1.0000   1.0000   1.0000   1.0000
     1.0000   1.0000   1.0000   1.0000   1.0000   1.0000   1.0000   1.0000
     1.0000   1.0000   1.0000   1.0000   1.0000   1.0000   1.0000   1.0000
     1.0000   1.0000   1.0000   1.0000   0.0000   0.0000   0.0000   0.0000
     0.0000   0.0000   0.0000   0.0000   0.0000   0.0000

     the Fermi energy is     6.9213 ev

!    total energy              =   -1998.57508545 Ry
     estimated scf accuracy    <          6.3E-09 Ry
     smearing contrib. (-TS)   =      -0.00000000 Ry
     internal energy E=F+TS    =   -1998.57508545 Ry

     The total energy is F=E-TS. E is the sum of the following terms:
     one-electron contribution =    -514.50725969 Ry
     hartree contribution      =     286.41392390 Ry
     xc contribution           =    -108.78983478 Ry
     ewald contribution        =    -456.80278467 Ry
     one-center paw contrib.   =   -1204.88913022 Ry
      -> PAW hartree energy AE =       0.63126091 Ry
      -> PAW hartree energy PS =      -0.63005113 Ry
      -> PAW xc energy AE      =     -31.60082107 Ry
      -> PAW xc energy PS      =       1.21192220 Ry
      -> total E_H with PAW    =     286.41513369 Ry
      -> total E_XC with PAW   =    -139.17873364 Ry

     convergence has been achieved in  14 iterations

     Forces acting on atoms (cartesian axes, Ry/au):

     atom    1 type  2   force =     0.00000008   -0.00000008    0.00000008
     atom    2 type  2   force =    -0.00000008   -0.00000008    0.00000008
     atom    3 type  2   force =     0.00000008    0.00000008   -0.00000008
     atom    4 type  2   force =    -0.00000008    0.00000008   -0.00000008
     atom    5 type  2   force =    -0.00000008   -0.00000008   -0.00000008
     atom    6 type  2   force =     0.00000008   -0.00000008   -0.00000008
     atom    7 type  2   force =    -0.00000008    0.00000008    0.00000008
     atom    8 type  2   force =     0.00000008    0.00000008    0.00000008
     atom    9 type  1   force =     0.00000000    0.00000000   -0.00366519
     atom   10 type  1   force =    -0.00000000    0.00366580    0.00000000
     atom   11 type  1   force =     0.00366580    0.00000000    0.00000000
     atom   12 type  1   force =     0.00000000    0.00000000    0.00366519
     atom   13 type  1   force =     0.00000000   -0.00366519   -0.00000000
     atom   14 type  1   force =    -0.00366580   -0.00000000    0.00000000
     atom   15 type  1   force =     0.00000000    0.00000000   -0.00366580
     atom   16 type  1   force =     0.00000000    0.00366519   -0.00000000
     atom   17 type  1   force =     0.00366580    0.00000000    0.00000000
     atom   18 type  1   force =     0.00000000    0.00000000    0.00366580
     atom   19 type  1   force =     0.00000000   -0.00366580    0.00000000
     atom   20 type  1   force =    -0.00366580    0.00000000    0.00000000
     atom   21 type  1   force =     0.00000000    0.00000000   -0.00366580
     atom   22 type  1   force =     0.00000000    0.00366580   -0.00000000
     atom   23 type  1   force =     0.00366519   -0.00000000    0.00000000
     atom   24 type  1   force =     0.00000000    0.00000000    0.00366580
     atom   25 type  1   force =     0.00000000   -0.00366573    0.00000000
     atom   26 type  1   force =    -0.00366519   -0.00000000    0.00000000
     atom   27 type  1   force =     0.00000000    0.00000000   -0.00366573
     atom   28 type  1   force =     0.00000000    0.00366573    0.00000000
     atom   29 type  1   force =     0.00366573    0.00000000    0.00000000
     atom   30 type  1   force =     0.00000000    0.00000000    0.00366573
     atom   31 type  1   force =     0.00000000   -0.00366580   -0.00000000
     atom   32 type  1   force =    -0.00366573    0.00000000    0.00000000
     atom   33 type  3   force =     0.00000000    0.00000000    0.00000000
     atom   34 type  3   force =     0.00000000    0.00000000    0.00000000
     atom   35 type  3   force =     0.00000000    0.00000000    0.00000000
     atom   36 type  3   force =     0.00000000    0.00000000    0.00000000
     The non-local contrib.  to forces
     atom    1 type  2   force =    -0.00000025    0.00000025   -0.00000025
     atom    2 type  2   force =     0.00000025    0.00000025   -0.00000025
     atom    3 type  2   force =    -0.00000025   -0.00000025    0.00000025
     atom    4 type  2   force =     0.00000025   -0.00000025    0.00000025
     atom    5 type  2   force =     0.00000025    0.00000025    0.00000025
     atom    6 type  2   force =    -0.00000025    0.00000025    0.00000025
     atom    7 type  2   force =     0.00000025   -0.00000025   -0.00000025
     atom    8 type  2   force =    -0.00000025   -0.00000025   -0.00000025
     atom    9 type  1   force =    -0.00000000    0.00000000    0.02243448
     atom   10 type  1   force =     0.00000000   -0.02243446   -0.00000000
     atom   11 type  1   force =    -0.02243446    0.00000000    0.00000000
     atom   12 type  1   force =     0.00000000    0.00000000   -0.02243448
     atom   13 type  1   force =     0.00000000    0.02243448    0.00000000
     atom   14 type  1   force =     0.02243446    0.00000000    0.00000000
     atom   15 type  1   force =     0.00000000    0.00000000    0.02243446
     atom   16 type  1   force =    -0.00000000   -0.02243448    0.00000000
     atom   17 type  1   force =    -0.02243446    0.00000000    0.00000000
     atom   18 type  1   force =     0.00000000    0.00000000   -0.02243446
     atom   19 type  1   force =     0.00000000    0.02243446    0.00000000
     atom   20 type  1   force =     0.02243446    0.00000000    0.00000000
     atom   21 type  1   force =    -0.00000000    0.00000000    0.02243446
     atom   22 type  1   force =    -0.00000000   -0.02243446    0.00000000
     atom   23 type  1   force =    -0.02243448    0.00000000    0.00000000
     atom   24 type  1   force =     0.00000000    0.00000000   -0.02243446
     atom   25 type  1   force =     0.00000000    0.02243450    0.00000000
     atom   26 type  1   force =     0.02243448   -0.00000000    0.00000000
     atom   27 type  1   force =     0.00000000    0.00000000    0.02243450
     atom   28 type  1   force =     0.00000000   -0.02243450    0.00000000
     atom   29 type  1   force =    -0.02243450    0.00000000   -0.00000000
     atom   30 type  1   force =     0.00000000    0.00000000   -0.02243450
     atom   31 type  1   force =     0.00000000    0.02243446    0.00000000
     atom   32 type  1   force =     0.02243450    0.00000000    0.00000000
     atom   33 type  3   force =     0.00000000    0.00000000    0.00000000
     atom   34 type  3   force =     0.00000000    0.00000000    0.00000000
     atom   35 type  3   force =     0.00000000    0.00000000    0.00000000
     atom   36 type  3   force =     0.00000000    0.00000000    0.00000000
     The ionic contribution  to forces
     atom    1 type  2   force =    -0.00000000    0.00000000   -0.00000000
     atom    2 type  2   force =     0.00000000    0.00000000    0.00000000
     atom    3 type  2   force =    -0.00000000   -0.00000000   -0.00000000
     atom    4 type  2   force =     0.00000000   -0.00000000    0.00000000
     atom    5 type  2   force =     0.00000000    0.00000000   -0.00000000
     atom    6 type  2   force =    -0.00000000    0.00000000    0.00000000
     atom    7 type  2   force =     0.00000000   -0.00000000   -0.00000000
     atom    8 type  2   force =    -0.00000000   -0.00000000    0.00000000
     atom    9 type  1   force =    -0.00000000   -0.00000000   -2.45700671
     atom   10 type  1   force =    -0.00000000    2.45700671    0.00000000
     atom   11 type  1   force =     2.45700671   -0.00000000    0.00000000
     atom   12 type  1   force =    -0.00000000   -0.00000000    2.45700671
     atom   13 type  1   force =     0.00000000   -2.45700671   -0.00000000
     atom   14 type  1   force =    -2.45700671    0.00000000    0.00000000
     atom   15 type  1   force =    -0.00000000    0.00000000   -2.45700671
     atom   16 type  1   force =    -0.00000000    2.45700671   -0.00000000
     atom   17 type  1   force =     2.45700671   -0.00000000   -0.00000000
     atom   18 type  1   force =    -0.00000000    0.00000000    2.45700671
     atom   19 type  1   force =     0.00000000   -2.45700671    0.00000000
     atom   20 type  1   force =    -2.45700671    0.00000000   -0.00000000
     atom   21 type  1   force =     0.00000000   -0.00000000   -2.45700671
     atom   22 type  1   force =     0.00000000    2.45700671   -0.00000000
     atom   23 type  1   force =     2.45700671   -0.00000000   -0.00000000
     atom   24 type  1   force =     0.00000000   -0.00000000    2.45700671
     atom   25 type  1   force =     0.00000000   -2.45700671   -0.00000000
     atom   26 type  1   force =    -2.45700671    0.00000000   -0.00000000
     atom   27 type  1   force =    -0.00000000   -0.00000000   -2.45700671
     atom   28 type  1   force =    -0.00000000    2.45700671    0.00000000
     atom   29 type  1   force =     2.45700671   -0.00000000    0.00000000
     atom   30 type  1   force =     0.00000000    0.00000000    2.45700671
     atom   31 type  1   force =     0.00000000   -2.45700671   -0.00000000
     atom   32 type  1   force =    -2.45700671    0.00000000   -0.00000000
     atom   33 type  3   force =    -0.00000000   -0.00000000   -0.00000000
     atom   34 type  3   force =    -0.00000000    0.00000000    0.00000000
     atom   35 type  3   force =     0.00000000   -0.00000000    0.00000000
     atom   36 type  3   force =     0.00000000    0.00000000   -0.00000000
     The local contribution  to forces
     atom    1 type  2   force =    -0.00000043    0.00000043   -0.00000043
     atom    2 type  2   force =     0.00000043    0.00000043   -0.00000043
     atom    3 type  2   force =    -0.00000043   -0.00000043    0.00000043
     atom    4 type  2   force =     0.00000043   -0.00000043    0.00000043
     atom    5 type  2   force =     0.00000043    0.00000043    0.00000043
     atom    6 type  2   force =    -0.00000043    0.00000043    0.00000043
     atom    7 type  2   force =     0.00000043   -0.00000043   -0.00000043
     atom    8 type  2   force =    -0.00000043   -0.00000043   -0.00000043
     atom    9 type  1   force =     0.00000000   -0.00000000    2.43091646
     atom   10 type  1   force =     0.00000000   -2.43091289   -0.00000000
     atom   11 type  1   force =    -2.43091289    0.00000000   -0.00000000
     atom   12 type  1   force =     0.00000000    0.00000000   -2.43091646
     atom   13 type  1   force =    -0.00000000    2.43091646    0.00000000
     atom   14 type  1   force =     2.43091289   -0.00000000    0.00000000
     atom   15 type  1   force =     0.00000000    0.00000000    2.43091289
     atom   16 type  1   force =     0.00000000   -2.43091646    0.00000000
     atom   17 type  1   force =    -2.43091289   -0.00000000    0.00000000
     atom   18 type  1   force =    -0.00000000   -0.00000000   -2.43091289
     atom   19 type  1   force =    -0.00000000    2.43091289    0.00000000
     atom   20 type  1   force =     2.43091289    0.00000000    0.00000000
     atom   21 type  1   force =     0.00000000   -0.00000000    2.43091289
     atom   22 type  1   force =     0.00000000   -2.43091289    0.00000000
     atom   23 type  1   force =    -2.43091646   -0.00000000    0.00000000
     atom   24 type  1   force =    -0.00000000    0.00000000   -2.43091289
     atom   25 type  1   force =    -0.00000000    2.43091330    0.00000000
     atom   26 type  1   force =     2.43091646    0.00000000    0.00000000
     atom   27 type  1   force =     0.00000000    0.00000000    2.43091330
     atom   28 type  1   force =     0.00000000   -2.43091330    0.00000000
     atom   29 type  1   force =    -2.43091330    0.00000000    0.00000000
     atom   30 type  1   force =     0.00000000    0.00000000   -2.43091330
     atom   31 type  1   force =    -0.00000000    2.43091289    0.00000000
     atom   32 type  1   force =     2.43091330   -0.00000000    0.00000000
     atom   33 type  3   force =     0.00000000    0.00000000    0.00000000
     atom   34 type  3   force =     0.00000000    0.00000000    0.00000000
     atom   35 type  3   force =     0.00000000    0.00000000    0.00000000
     atom   36 type  3   force =     0.00000000    0.00000000    0.00000000
     The core correction contribution to forces
     atom    1 type  2   force =     0.00000003   -0.00000003    0.00000003
     atom    2 type  2   force =    -0.00000003   -0.00000003    0.00000003
     atom    3 type  2   force =     0.00000003    0.00000003   -0.00000003
     atom    4 type  2   force =    -0.00000003    0.00000003   -0.00000003
     atom    5 type  2   force =    -0.00000003   -0.00000003   -0.00000003
     atom    6 type  2   force =     0.00000003   -0.00000003   -0.00000003
     atom    7 type  2   force =    -0.00000003    0.00000003    0.00000003
     atom    8 type  2   force =     0.00000003    0.00000003    0.00000003
     atom    9 type  1   force =     0.00000000    0.00000000    0.00000000
     atom   10 type  1   force =     0.00000000    0.00000000    0.00000000
     atom   11 type  1   force =     0.00000000    0.00000000    0.00000000
     atom   12 type  1   force =     0.00000000    0.00000000    0.00000000
     atom   13 type  1   force =     0.00000000    0.00000000    0.00000000
     atom   14 type  1   force =     0.00000000    0.00000000    0.00000000
     atom   15 type  1   force =     0.00000000    0.00000000    0.00000000
     atom   16 type  1   force =     0.00000000    0.00000000    0.00000000
     atom   17 type  1   force =     0.00000000    0.00000000    0.00000000
     atom   18 type  1   force =     0.00000000    0.00000000    0.00000000
     atom   19 type  1   force =     0.00000000    0.00000000    0.00000000
     atom   20 type  1   force =     0.00000000    0.00000000    0.00000000
     atom   21 type  1   force =     0.00000000    0.00000000    0.00000000
     atom   22 type  1   force =     0.00000000    0.00000000    0.00000000
     atom   23 type  1   force =     0.00000000    0.00000000    0.00000000
     atom   24 type  1   force =     0.00000000    0.00000000    0.00000000
     atom   25 type  1   force =     0.00000000    0.00000000    0.00000000
     atom   26 type  1   force =     0.00000000    0.00000000    0.00000000
     atom   27 type  1   force =     0.00000000    0.00000000    0.00000000
     atom   28 type  1   force =     0.00000000    0.00000000    0.00000000
     atom   29 type  1   force =     0.00000000    0.00000000    0.00000000
     atom   30 type  1   force =     0.00000000    0.00000000    0.00000000
     atom   31 type  1   force =     0.00000000    0.00000000    0.00000000
     atom   32 type  1   force =     0.00000000    0.00000000    0.00000000
     atom   33 type  3   force =     0.00000000    0.00000000   -0.00000000
     atom   34 type  3   force =     0.00000000    0.00000000    0.00000000
     atom   35 type  3   force =     0.00000000    0.00000000    0.00000000
     atom   36 type  3   force =     0.00000000    0.00000000   -0.00000000
     The Hubbard contrib.    to forces
     atom    1 type  2   force =     0.00000000    0.00000000    0.00000000
     atom    2 type  2   force =     0.00000000    0.00000000    0.00000000
     atom    3 type  2   force =     0.00000000    0.00000000    0.00000000
     atom    4 type  2   force =     0.00000000    0.00000000    0.00000000
     atom    5 type  2   force =     0.00000000    0.00000000    0.00000000
     atom    6 type  2   force =     0.00000000    0.00000000    0.00000000
     atom    7 type  2   force =     0.00000000    0.00000000    0.00000000
     atom    8 type  2   force =     0.00000000    0.00000000    0.00000000
     atom    9 type  1   force =     0.00000000    0.00000000    0.00000000
     atom   10 type  1   force =     0.00000000    0.00000000    0.00000000
     atom   11 type  1   force =     0.00000000    0.00000000    0.00000000
     atom   12 type  1   force =     0.00000000    0.00000000    0.00000000
     atom   13 type  1   force =     0.00000000    0.00000000    0.00000000
     atom   14 type  1   force =     0.00000000    0.00000000    0.00000000
     atom   15 type  1   force =     0.00000000    0.00000000    0.00000000
     atom   16 type  1   force =     0.00000000    0.00000000    0.00000000
     atom   17 type  1   force =     0.00000000    0.00000000    0.00000000
     atom   18 type  1   force =     0.00000000    0.00000000    0.00000000
     atom   19 type  1   force =     0.00000000    0.00000000    0.00000000
     atom   20 type  1   force =     0.00000000    0.00000000    0.00000000
     atom   21 type  1   force =     0.00000000    0.00000000    0.00000000
     atom   22 type  1   force =     0.00000000    0.00000000    0.00000000
     atom   23 type  1   force =     0.00000000    0.00000000    0.00000000
     atom   24 type  1   force =     0.00000000    0.00000000    0.00000000
     atom   25 type  1   force =     0.00000000    0.00000000    0.00000000
     atom   26 type  1   force =     0.00000000    0.00000000    0.00000000
     atom   27 type  1   force =     0.00000000    0.00000000    0.00000000
     atom   28 type  1   force =     0.00000000    0.00000000    0.00000000
     atom   29 type  1   force =     0.00000000    0.00000000    0.00000000
     atom   30 type  1   force =     0.00000000    0.00000000    0.00000000
     atom   31 type  1   force =     0.00000000    0.00000000    0.00000000
     atom   32 type  1   force =     0.00000000    0.00000000    0.00000000
     atom   33 type  3   force =     0.00000000    0.00000000    0.00000000
     atom   34 type  3   force =     0.00000000    0.00000000    0.00000000
     atom   35 type  3   force =     0.00000000    0.00000000    0.00000000
     atom   36 type  3   force =     0.00000000    0.00000000    0.00000000
     The SCF correction term to forces
     atom    1 type  2   force =     0.00000073   -0.00000073    0.00000073
     atom    2 type  2   force =    -0.00000073   -0.00000073    0.00000073
     atom    3 type  2   force =     0.00000073    0.00000073   -0.00000073
     atom    4 type  2   force =    -0.00000073    0.00000073   -0.00000073
     atom    5 type  2   force =    -0.00000073   -0.00000073   -0.00000073
     atom    6 type  2   force =     0.00000073   -0.00000073   -0.00000073
     atom    7 type  2   force =    -0.00000073    0.00000073    0.00000073
     atom    8 type  2   force =     0.00000073    0.00000073    0.00000073
     atom    9 type  1   force =     0.00000000    0.00000000   -0.00000942
     atom   10 type  1   force =     0.00000000    0.00000644   -0.00000000
     atom   11 type  1   force =     0.00000644   -0.00000000   -0.00000000
     atom   12 type  1   force =    -0.00000000    0.00000000    0.00000942
     atom   13 type  1   force =     0.00000000   -0.00000942   -0.00000000
     atom   14 type  1   force =    -0.00000644   -0.00000000   -0.00000000
     atom   15 type  1   force =     0.00000000   -0.00000000   -0.00000644
     atom   16 type  1   force =     0.00000000    0.00000942   -0.00000000
     atom   17 type  1   force =     0.00000644    0.00000000   -0.00000000
     atom   18 type  1   force =     0.00000000    0.00000000    0.00000644
     atom   19 type  1   force =     0.00000000   -0.00000644   -0.00000000
     atom   20 type  1   force =    -0.00000644    0.00000000   -0.00000000
     atom   21 type  1   force =     0.00000000   -0.00000000   -0.00000644
     atom   22 type  1   force =     0.00000000    0.00000644   -0.00000000
     atom   23 type  1   force =     0.00000942   -0.00000000   -0.00000000
     atom   24 type  1   force =     0.00000000    0.00000000    0.00000644
     atom   25 type  1   force =     0.00000000   -0.00000682   -0.00000000
     atom   26 type  1   force =    -0.00000942    0.00000000   -0.00000000
     atom   27 type  1   force =    -0.00000000   -0.00000000   -0.00000682
     atom   28 type  1   force =     0.00000000    0.00000682   -0.00000000
     atom   29 type  1   force =     0.00000682   -0.00000000   -0.00000000
     atom   30 type  1   force =    -0.00000000    0.00000000    0.00000682
     atom   31 type  1   force =     0.00000000   -0.00000644   -0.00000000
     atom   32 type  1   force =    -0.00000682   -0.00000000   -0.00000000
     atom   33 type  3   force =     0.00000000   -0.00000000    0.00000000
     atom   34 type  3   force =     0.00000000   -0.00000000   -0.00000000
     atom   35 type  3   force =     0.00000000   -0.00000000   -0.00000000
     atom   36 type  3   force =    -0.00000000   -0.00000000    0.00000000

     Total force =     0.017958     Total SCF correction =     0.000036


     Computing stress (Cartesian axis) and pressure

          total   stress  (Ry/bohr**3)                   (kbar)     P=       -2.35
  -0.00001598   0.00000000   0.00000000           -2.35        0.00        0.00
   0.00000000  -0.00001598   0.00000000            0.00       -2.35        0.00
   0.00000000   0.00000000  -0.00001598            0.00        0.00       -2.35

     kinetic stress (kbar)   6460.89      0.00      0.00
                                0.00   6460.89      0.00
                                0.00      0.00   6460.89

     local   stress (kbar)  -4065.04     -0.00      0.00
                               -0.00  -4065.04     -0.00
                                0.00     -0.00  -4065.04

     nonloc. stress (kbar)   4404.54      0.00      0.00
                                0.00   4404.54      0.00
                                0.00      0.00   4404.54

     hartree stress (kbar)   7255.00     -0.00     -0.00
                               -0.00   7255.00      0.00
                               -0.00      0.00   7255.00

     exc-cor stress (kbar)  -2042.30      0.00      0.00
                                0.00  -2042.30      0.00
                                0.00      0.00  -2042.30

     corecor stress (kbar)   -444.41     -0.00      0.00
                               -0.00   -444.41     -0.00
                                0.00     -0.00   -444.41

     ewald   stress (kbar) -11571.03      0.00      0.00
                                0.00 -11571.03      0.00
                                0.00      0.00 -11571.03

     hubbard stress (kbar)      0.00      0.00      0.00
                                0.00      0.00      0.00
                                0.00      0.00      0.00

     DFT-D   stress (kbar)      0.00      0.00      0.00
                                0.00      0.00      0.00
                                0.00      0.00      0.00

     XDM     stress (kbar)      0.00      0.00      0.00
                                0.00      0.00      0.00
                                0.00      0.00      0.00

     dft-nl  stress (kbar)      0.00      0.00      0.00
                                0.00      0.00      0.00
                                0.00      0.00      0.00

     TS-vdW  stress (kbar)      0.00      0.00      0.00
                                0.00      0.00      0.00
                                0.00      0.00      0.00

     MDB     stress (kbar)      0.00      0.00      0.00
                                0.00      0.00      0.00
                                0.00      0.00      0.00

     3D-RISM stress (kbar)      0.00      0.00      0.00
                                0.00      0.00      0.00
                                0.00      0.00      0.00


     Writing all to output data dir ./out/ru-kp-5.save/

     init_run     :      2.00s CPU      2.38s WALL (       1 calls)
     electrons    :     24.08s CPU     30.90s WALL (       1 calls)
     forces       :      0.75s CPU      0.87s WALL (       1 calls)
     stress       :      3.28s CPU      3.42s WALL (       1 calls)

     Called by init_run:
     wfcinit      :      0.62s CPU      0.72s WALL (       1 calls)
     wfcinit:atom :      0.01s CPU      0.01s WALL (       5 calls)
     wfcinit:wfcr :      0.58s CPU      0.67s WALL (       5 calls)
     potinit      :      0.50s CPU      0.64s WALL (       1 calls)
     hinit0       :      0.37s CPU      0.43s WALL (       1 calls)

     Called by electrons:
     c_bands      :     16.65s CPU     19.92s WALL (      14 calls)
     sum_band     :      3.61s CPU      4.66s WALL (      14 calls)
     v_of_rho     :      1.08s CPU      1.29s WALL (      15 calls)
     v_h          :      0.11s CPU      0.13s WALL (      15 calls)
     v_xc         :      1.10s CPU      1.32s WALL (      17 calls)
     newd         :      1.54s CPU      2.01s WALL (      15 calls)
     PAW_pot      :      1.16s CPU      2.97s WALL (      15 calls)
     mix_rho      :      0.12s CPU      0.19s WALL (      14 calls)

     Called by c_bands:
     init_us_2    :      0.24s CPU      0.27s WALL (     155 calls)
     init_us_2:cp :      0.24s CPU      0.27s WALL (     155 calls)
     cegterg      :     15.65s CPU     17.66s WALL (      70 calls)

     Called by sum_band:
     sum_band:wei :      0.00s CPU      0.00s WALL (      14 calls)
     sum_band:loo :      1.76s CPU      2.10s WALL (      14 calls)
     sum_band:buf :      0.03s CPU      0.04s WALL (      70 calls)
     sum_band:ini :      0.10s CPU      0.11s WALL (      70 calls)
     sum_band:cal :      0.28s CPU      0.37s WALL (      70 calls)
     sum_band:bec :      0.01s CPU      0.01s WALL (      70 calls)
     addusdens    :      1.72s CPU      2.30s WALL (      14 calls)
                                        0.00s GPU  (      14 calls)
     addusd:skk   :      0.10s CPU      0.10s WALL (      42 calls)
                                        0.00s GPU  (      42 calls)

     Called by *egterg:
     cdiaghg      :      2.18s CPU      2.32s WALL (     518 calls)
     cegterg:over :      0.81s CPU      0.96s WALL (     448 calls)
     cegterg:upda :      0.57s CPU      0.59s WALL (     448 calls)
     cegterg:last :      0.87s CPU      0.88s WALL (     185 calls)
     h_psi        :     10.49s CPU     12.19s WALL (     523 calls)
     s_psi        :      0.78s CPU      0.80s WALL (     523 calls)
     g_psi        :      0.03s CPU      0.03s WALL (     448 calls)

     Called by h_psi:
     h_psi:calbec :      1.44s CPU      1.70s WALL (     523 calls)
     vloc_psi     :      8.09s CPU      9.46s WALL (     523 calls)
     add_vuspsi   :      0.88s CPU      0.93s WALL (     523 calls)

     General routines
     calbec       :      1.81s CPU      2.19s WALL (     618 calls)
     fft          :      0.83s CPU      1.16s WALL (     218 calls)
     ffts         :      0.16s CPU      0.17s WALL (      29 calls)
     fftw         :      7.42s CPU      8.73s WALL (   31304 calls)
     interpolate  :      0.22s CPU      0.23s WALL (      15 calls)

     Parallel routines

     PAW routines
     PAW_pot      :      1.16s CPU      2.97s WALL (      15 calls)
     PAW_symme    :      0.02s CPU      0.02s WALL (      29 calls)

     PWSCF        :     30.59s CPU     38.63s WALL


   This run was terminated on:  22:38:59  13Jun2025            

=------------------------------------------------------------------------------=
   JOB DONE.
=------------------------------------------------------------------------------=
