
     Program PWSCF v.7.2 starts on 13Jun2025 at 22:40:10 

     This program is part of the open-source Quantum ESPRESSO suite
     for quantum simulation of materials; please cite
         "P. Giannozzi et al., J. Phys.:Condens. Matter 21 395502 (2009);
         "P. Giannozzi et al., J. Phys.:Condens. Matter 29 465901 (2017);
         "P. Giannozzi et al., J. Chem. Phys. 152 154105 (2020);
          URL http://www.quantum-espresso.org", 
     in publications or presentations arising from this work. More details at
     http://www.quantum-espresso.org/quote

     Parallel version (MPI & OpenMP), running on      64 processor cores
     Number of MPI processes:                64
     Threads/MPI process:                     1

     MPI processes distributed on     1 nodes
     219694 MiB available memory on the printing compute node when the environment starts

     Reading input from ru_kp_7.in

     Current dimensions of program PWSCF are:
     Max number of different atomic species (ntypx) = 10
     Max number of k-points (npk) =  40000
     Max angular momentum in pseudopotentials (lmaxx) =  4
     Message from routine read_pp_mesh:
     mismatch in mesh size, discarding the one in header
     file Mg.pbesol-n-kjpaw_psl.0.3.0.UPF: wavefunction(s)  3S renormalized
     Found identity + (  0.0000  0.5000 -0.5000) symmetry
     This is a supercell, fractional translations are disabled
     Message from routine setup:
     using ibrav=0 with symmetry is DISCOURAGED, use correct ibrav instead

     K-points division:     npool     =       2
     R & G space division:  proc/nbgrp/npool/nimage =      32
     Subspace diagonalization in iterative solution of the eigenvalue problem:
     a serial algorithm will be used


     Parallelization info
     --------------------
     sticks:   dense  smooth     PW     G-vecs:    dense   smooth      PW
     Min         416     138     37                36246     6970     979
     Max         417     139     38                36253     6975     986
     Sum       13341    4445   1201              1160031   223135   31439

     Using Slab Decomposition



     bravais-lattice index     =            0
     lattice parameter (alat)  =      12.4630  a.u.
     unit-cell volume          =    1935.8122 (a.u.)^3
     number of atoms/cell      =           36
     number of atomic types    =            3
     number of electrons       =       104.00
     number of Kohn-Sham states=           62
     kinetic-energy cutoff     =      90.0000  Ry
     charge density cutoff     =    1080.0000  Ry
     scf convergence threshold =      7.2E-09
     mixing beta               =       0.4000
     number of iterations used =            8  plain     mixing
     Exchange-correlation= SLA PW PSX PSC
                           (   1   4  10   8   0   0   0)

     celldm(1)=  12.462956  celldm(2)=   0.000000  celldm(3)=   0.000000
     celldm(4)=   0.000000  celldm(5)=   0.000000  celldm(6)=   0.000000

     crystal axes: (cart. coord. in units of alat)
               a(1) = (   1.000000   0.000000   0.000000 )  
               a(2) = (   0.000000   1.000000   0.000000 )  
               a(3) = (   0.000000   0.000000   1.000000 )  

     reciprocal axes: (cart. coord. in units 2 pi/alat)
               b(1) = (  1.000000  0.000000  0.000000 )  
               b(2) = (  0.000000  1.000000  0.000000 )  
               b(3) = (  0.000000  0.000000  1.000000 )  


     PseudoPot. # 1 for H  read from file:
     ./pseudo/H.pbesol-rrkjus_psl.1.0.0.UPF
     MD5 check sum: 0324ed591cc0147dc3d88cad0d33f665
     Pseudo is Ultrasoft, Zval =  1.0
     Generated using "atomic" code by A. Dal Corso  v.6.0 svn rev. 13079
     Using radial grid of  929 points,  2 beta functions with: 
                l(1) =   0
                l(2) =   0
     Q(r) pseudized with 0 coefficients 


     PseudoPot. # 2 for Mg read from file:
     ./pseudo/Mg.pbesol-n-kjpaw_psl.0.3.0.UPF
     MD5 check sum: a6c8d2ff726a5f7005dea00130d82930
     Pseudo is Projector augmented-wave + core cor, Zval =  2.0
     Generated using "atomic" code by A. Dal Corso  v.6.1 svn rev. 13369
     Shape of augmentation charge: PSQ
     Using radial grid of 1129 points,  4 beta functions with: 
                l(1) =   0
                l(2) =   0
                l(3) =   1
                l(4) =   1
     Q(r) pseudized with 0 coefficients 


     PseudoPot. # 3 for Ru read from file:
     ./pseudo/Ru.upf
     MD5 check sum: be3bb57e49b2afd7571f8dd5d9c7d987
     Pseudo is Projector augmented-wave + core cor, Zval = 16.0
     Generated using ATOMPAW code
     Shape of augmentation charge: SINC**2
     Using radial grid of 2342 points,  6 beta functions with: 
                l(1) =   0
                l(2) =   0
                l(3) =   1
                l(4) =   1
                l(5) =   2
                l(6) =   2
     Q(r) pseudized with 0 coefficients 


     atomic species   valence    mass     pseudopotential
        H              1.00     1.00794     H ( 1.00)
        Mg             2.00    24.30500     Mg( 1.00)
        Ru            16.00   101.07000     Ru( 1.00)

     48 Sym. Ops., with inversion, found


                                    s                        frac. trans.

      isym =  1     identity                                     

 cryst.   s( 1) = (     1          0          0      )
                  (     0          1          0      )
                  (     0          0          1      )

 cart.    s( 1) = (  1.0000000  0.0000000  0.0000000 )
                  (  0.0000000  1.0000000  0.0000000 )
                  (  0.0000000  0.0000000  1.0000000 )


      isym =  2     180 deg rotation - cart. axis [0,0,1]        

 cryst.   s( 2) = (    -1          0          0      )
                  (     0         -1          0      )
                  (     0          0          1      )

 cart.    s( 2) = ( -1.0000000  0.0000000  0.0000000 )
                  (  0.0000000 -1.0000000  0.0000000 )
                  (  0.0000000  0.0000000  1.0000000 )


      isym =  3     180 deg rotation - cart. axis [0,1,0]        

 cryst.   s( 3) = (    -1          0          0      )
                  (     0          1          0      )
                  (     0          0         -1      )

 cart.    s( 3) = ( -1.0000000  0.0000000  0.0000000 )
                  (  0.0000000  1.0000000  0.0000000 )
                  (  0.0000000  0.0000000 -1.0000000 )


      isym =  4     180 deg rotation - cart. axis [1,0,0]        

 cryst.   s( 4) = (     1          0          0      )
                  (     0         -1          0      )
                  (     0          0         -1      )

 cart.    s( 4) = (  1.0000000  0.0000000  0.0000000 )
                  (  0.0000000 -1.0000000  0.0000000 )
                  (  0.0000000  0.0000000 -1.0000000 )


      isym =  5     180 deg rotation - cart. axis [1,1,0]        

 cryst.   s( 5) = (     0          1          0      )
                  (     1          0          0      )
                  (     0          0         -1      )

 cart.    s( 5) = (  0.0000000  1.0000000  0.0000000 )
                  (  1.0000000  0.0000000  0.0000000 )
                  (  0.0000000  0.0000000 -1.0000000 )


      isym =  6     180 deg rotation - cart. axis [1,-1,0]       

 cryst.   s( 6) = (     0         -1          0      )
                  (    -1          0          0      )
                  (     0          0         -1      )

 cart.    s( 6) = (  0.0000000 -1.0000000  0.0000000 )
                  ( -1.0000000  0.0000000  0.0000000 )
                  (  0.0000000  0.0000000 -1.0000000 )


      isym =  7      90 deg rotation - cart. axis [0,0,-1]       

 cryst.   s( 7) = (     0         -1          0      )
                  (     1          0          0      )
                  (     0          0          1      )

 cart.    s( 7) = (  0.0000000  1.0000000  0.0000000 )
                  ( -1.0000000  0.0000000  0.0000000 )
                  (  0.0000000  0.0000000  1.0000000 )


      isym =  8      90 deg rotation - cart. axis [0,0,1]        

 cryst.   s( 8) = (     0          1          0      )
                  (    -1          0          0      )
                  (     0          0          1      )

 cart.    s( 8) = (  0.0000000 -1.0000000  0.0000000 )
                  (  1.0000000  0.0000000  0.0000000 )
                  (  0.0000000  0.0000000  1.0000000 )


      isym =  9     180 deg rotation - cart. axis [1,0,1]        

 cryst.   s( 9) = (     0          0          1      )
                  (     0         -1          0      )
                  (     1          0          0      )

 cart.    s( 9) = (  0.0000000  0.0000000  1.0000000 )
                  (  0.0000000 -1.0000000  0.0000000 )
                  (  1.0000000  0.0000000  0.0000000 )


      isym = 10     180 deg rotation - cart. axis [-1,0,1]       

 cryst.   s(10) = (     0          0         -1      )
                  (     0         -1          0      )
                  (    -1          0          0      )

 cart.    s(10) = (  0.0000000  0.0000000 -1.0000000 )
                  (  0.0000000 -1.0000000  0.0000000 )
                  ( -1.0000000  0.0000000  0.0000000 )


      isym = 11      90 deg rotation - cart. axis [0,1,0]        

 cryst.   s(11) = (     0          0         -1      )
                  (     0          1          0      )
                  (     1          0          0      )

 cart.    s(11) = (  0.0000000  0.0000000  1.0000000 )
                  (  0.0000000  1.0000000  0.0000000 )
                  ( -1.0000000  0.0000000  0.0000000 )


      isym = 12      90 deg rotation - cart. axis [0,-1,0]       

 cryst.   s(12) = (     0          0          1      )
                  (     0          1          0      )
                  (    -1          0          0      )

 cart.    s(12) = (  0.0000000  0.0000000 -1.0000000 )
                  (  0.0000000  1.0000000  0.0000000 )
                  (  1.0000000  0.0000000  0.0000000 )


      isym = 13     180 deg rotation - cart. axis [0,1,1]        

 cryst.   s(13) = (    -1          0          0      )
                  (     0          0          1      )
                  (     0          1          0      )

 cart.    s(13) = ( -1.0000000  0.0000000  0.0000000 )
                  (  0.0000000  0.0000000  1.0000000 )
                  (  0.0000000  1.0000000  0.0000000 )


      isym = 14     180 deg rotation - cart. axis [0,1,-1]       

 cryst.   s(14) = (    -1          0          0      )
                  (     0          0         -1      )
                  (     0         -1          0      )

 cart.    s(14) = ( -1.0000000  0.0000000  0.0000000 )
                  (  0.0000000  0.0000000 -1.0000000 )
                  (  0.0000000 -1.0000000  0.0000000 )


      isym = 15      90 deg rotation - cart. axis [-1,0,0]       

 cryst.   s(15) = (     1          0          0      )
                  (     0          0         -1      )
                  (     0          1          0      )

 cart.    s(15) = (  1.0000000  0.0000000  0.0000000 )
                  (  0.0000000  0.0000000  1.0000000 )
                  (  0.0000000 -1.0000000  0.0000000 )


      isym = 16      90 deg rotation - cart. axis [1,0,0]        

 cryst.   s(16) = (     1          0          0      )
                  (     0          0          1      )
                  (     0         -1          0      )

 cart.    s(16) = (  1.0000000  0.0000000  0.0000000 )
                  (  0.0000000  0.0000000 -1.0000000 )
                  (  0.0000000  1.0000000  0.0000000 )


      isym = 17     120 deg rotation - cart. axis [-1,-1,-1]     

 cryst.   s(17) = (     0          0          1      )
                  (     1          0          0      )
                  (     0          1          0      )

 cart.    s(17) = (  0.0000000  1.0000000  0.0000000 )
                  (  0.0000000  0.0000000  1.0000000 )
                  (  1.0000000  0.0000000  0.0000000 )


      isym = 18     120 deg rotation - cart. axis [-1,1,1]       

 cryst.   s(18) = (     0          0         -1      )
                  (    -1          0          0      )
                  (     0          1          0      )

 cart.    s(18) = (  0.0000000 -1.0000000  0.0000000 )
                  (  0.0000000  0.0000000  1.0000000 )
                  ( -1.0000000  0.0000000  0.0000000 )


      isym = 19     120 deg rotation - cart. axis [1,1,-1]       

 cryst.   s(19) = (     0          0         -1      )
                  (     1          0          0      )
                  (     0         -1          0      )

 cart.    s(19) = (  0.0000000  1.0000000  0.0000000 )
                  (  0.0000000  0.0000000 -1.0000000 )
                  ( -1.0000000  0.0000000  0.0000000 )


      isym = 20     120 deg rotation - cart. axis [1,-1,1]       

 cryst.   s(20) = (     0          0          1      )
                  (    -1          0          0      )
                  (     0         -1          0      )

 cart.    s(20) = (  0.0000000 -1.0000000  0.0000000 )
                  (  0.0000000  0.0000000 -1.0000000 )
                  (  1.0000000  0.0000000  0.0000000 )


      isym = 21     120 deg rotation - cart. axis [1,1,1]        

 cryst.   s(21) = (     0          1          0      )
                  (     0          0          1      )
                  (     1          0          0      )

 cart.    s(21) = (  0.0000000  0.0000000  1.0000000 )
                  (  1.0000000  0.0000000  0.0000000 )
                  (  0.0000000  1.0000000  0.0000000 )


      isym = 22     120 deg rotation - cart. axis [-1,1,-1]      

 cryst.   s(22) = (     0         -1          0      )
                  (     0          0         -1      )
                  (     1          0          0      )

 cart.    s(22) = (  0.0000000  0.0000000  1.0000000 )
                  ( -1.0000000  0.0000000  0.0000000 )
                  (  0.0000000 -1.0000000  0.0000000 )


      isym = 23     120 deg rotation - cart. axis [1,-1,-1]      

 cryst.   s(23) = (     0         -1          0      )
                  (     0          0          1      )
                  (    -1          0          0      )

 cart.    s(23) = (  0.0000000  0.0000000 -1.0000000 )
                  ( -1.0000000  0.0000000  0.0000000 )
                  (  0.0000000  1.0000000  0.0000000 )


      isym = 24     120 deg rotation - cart. axis [-1,-1,1]      

 cryst.   s(24) = (     0          1          0      )
                  (     0          0         -1      )
                  (    -1          0          0      )

 cart.    s(24) = (  0.0000000  0.0000000 -1.0000000 )
                  (  1.0000000  0.0000000  0.0000000 )
                  (  0.0000000 -1.0000000  0.0000000 )


      isym = 25     inversion                                    

 cryst.   s(25) = (    -1          0          0      )
                  (     0         -1          0      )
                  (     0          0         -1      )

 cart.    s(25) = ( -1.0000000  0.0000000  0.0000000 )
                  (  0.0000000 -1.0000000  0.0000000 )
                  (  0.0000000  0.0000000 -1.0000000 )


      isym = 26     inv. 180 deg rotation - cart. axis [0,0,1]   

 cryst.   s(26) = (     1          0          0      )
                  (     0          1          0      )
                  (     0          0         -1      )

 cart.    s(26) = (  1.0000000  0.0000000  0.0000000 )
                  (  0.0000000  1.0000000  0.0000000 )
                  (  0.0000000  0.0000000 -1.0000000 )


      isym = 27     inv. 180 deg rotation - cart. axis [0,1,0]   

 cryst.   s(27) = (     1          0          0      )
                  (     0         -1          0      )
                  (     0          0          1      )

 cart.    s(27) = (  1.0000000  0.0000000  0.0000000 )
                  (  0.0000000 -1.0000000  0.0000000 )
                  (  0.0000000  0.0000000  1.0000000 )


      isym = 28     inv. 180 deg rotation - cart. axis [1,0,0]   

 cryst.   s(28) = (    -1          0          0      )
                  (     0          1          0      )
                  (     0          0          1      )

 cart.    s(28) = ( -1.0000000  0.0000000  0.0000000 )
                  (  0.0000000  1.0000000  0.0000000 )
                  (  0.0000000  0.0000000  1.0000000 )


      isym = 29     inv. 180 deg rotation - cart. axis [1,1,0]   

 cryst.   s(29) = (     0         -1          0      )
                  (    -1          0          0      )
                  (     0          0          1      )

 cart.    s(29) = (  0.0000000 -1.0000000  0.0000000 )
                  ( -1.0000000  0.0000000  0.0000000 )
                  (  0.0000000  0.0000000  1.0000000 )


      isym = 30     inv. 180 deg rotation - cart. axis [1,-1,0]  

 cryst.   s(30) = (     0          1          0      )
                  (     1          0          0      )
                  (     0          0          1      )

 cart.    s(30) = (  0.0000000  1.0000000  0.0000000 )
                  (  1.0000000  0.0000000  0.0000000 )
                  (  0.0000000  0.0000000  1.0000000 )


      isym = 31     inv.  90 deg rotation - cart. axis [0,0,-1]  

 cryst.   s(31) = (     0          1          0      )
                  (    -1          0          0      )
                  (     0          0         -1      )

 cart.    s(31) = (  0.0000000 -1.0000000  0.0000000 )
                  (  1.0000000  0.0000000  0.0000000 )
                  (  0.0000000  0.0000000 -1.0000000 )


      isym = 32     inv.  90 deg rotation - cart. axis [0,0,1]   

 cryst.   s(32) = (     0         -1          0      )
                  (     1          0          0      )
                  (     0          0         -1      )

 cart.    s(32) = (  0.0000000  1.0000000  0.0000000 )
                  ( -1.0000000  0.0000000  0.0000000 )
                  (  0.0000000  0.0000000 -1.0000000 )


      isym = 33     inv. 180 deg rotation - cart. axis [1,0,1]   

 cryst.   s(33) = (     0          0         -1      )
                  (     0          1          0      )
                  (    -1          0          0      )

 cart.    s(33) = (  0.0000000  0.0000000 -1.0000000 )
                  (  0.0000000  1.0000000  0.0000000 )
                  ( -1.0000000  0.0000000  0.0000000 )


      isym = 34     inv. 180 deg rotation - cart. axis [-1,0,1]  

 cryst.   s(34) = (     0          0          1      )
                  (     0          1          0      )
                  (     1          0          0      )

 cart.    s(34) = (  0.0000000  0.0000000  1.0000000 )
                  (  0.0000000  1.0000000  0.0000000 )
                  (  1.0000000  0.0000000  0.0000000 )


      isym = 35     inv.  90 deg rotation - cart. axis [0,1,0]   

 cryst.   s(35) = (     0          0          1      )
                  (     0         -1          0      )
                  (    -1          0          0      )

 cart.    s(35) = (  0.0000000  0.0000000 -1.0000000 )
                  (  0.0000000 -1.0000000  0.0000000 )
                  (  1.0000000  0.0000000  0.0000000 )


      isym = 36     inv.  90 deg rotation - cart. axis [0,-1,0]  

 cryst.   s(36) = (     0          0         -1      )
                  (     0         -1          0      )
                  (     1          0          0      )

 cart.    s(36) = (  0.0000000  0.0000000  1.0000000 )
                  (  0.0000000 -1.0000000  0.0000000 )
                  ( -1.0000000  0.0000000  0.0000000 )


      isym = 37     inv. 180 deg rotation - cart. axis [0,1,1]   

 cryst.   s(37) = (     1          0          0      )
                  (     0          0         -1      )
                  (     0         -1          0      )

 cart.    s(37) = (  1.0000000  0.0000000  0.0000000 )
                  (  0.0000000  0.0000000 -1.0000000 )
                  (  0.0000000 -1.0000000  0.0000000 )


      isym = 38     inv. 180 deg rotation - cart. axis [0,1,-1]  

 cryst.   s(38) = (     1          0          0      )
                  (     0          0          1      )
                  (     0          1          0      )

 cart.    s(38) = (  1.0000000  0.0000000  0.0000000 )
                  (  0.0000000  0.0000000  1.0000000 )
                  (  0.0000000  1.0000000  0.0000000 )


      isym = 39     inv.  90 deg rotation - cart. axis [-1,0,0]  

 cryst.   s(39) = (    -1          0          0      )
                  (     0          0          1      )
                  (     0         -1          0      )

 cart.    s(39) = ( -1.0000000  0.0000000  0.0000000 )
                  (  0.0000000  0.0000000 -1.0000000 )
                  (  0.0000000  1.0000000  0.0000000 )


      isym = 40     inv.  90 deg rotation - cart. axis [1,0,0]   

 cryst.   s(40) = (    -1          0          0      )
                  (     0          0         -1      )
                  (     0          1          0      )

 cart.    s(40) = ( -1.0000000  0.0000000  0.0000000 )
                  (  0.0000000  0.0000000  1.0000000 )
                  (  0.0000000 -1.0000000  0.0000000 )


      isym = 41     inv. 120 deg rotation - cart. axis [-1,-1,-1]

 cryst.   s(41) = (     0          0         -1      )
                  (    -1          0          0      )
                  (     0         -1          0      )

 cart.    s(41) = (  0.0000000 -1.0000000  0.0000000 )
                  (  0.0000000  0.0000000 -1.0000000 )
                  ( -1.0000000  0.0000000  0.0000000 )


      isym = 42     inv. 120 deg rotation - cart. axis [-1,1,1]  

 cryst.   s(42) = (     0          0          1      )
                  (     1          0          0      )
                  (     0         -1          0      )

 cart.    s(42) = (  0.0000000  1.0000000  0.0000000 )
                  (  0.0000000  0.0000000 -1.0000000 )
                  (  1.0000000  0.0000000  0.0000000 )


      isym = 43     inv. 120 deg rotation - cart. axis [1,1,-1]  

 cryst.   s(43) = (     0          0          1      )
                  (    -1          0          0      )
                  (     0          1          0      )

 cart.    s(43) = (  0.0000000 -1.0000000  0.0000000 )
                  (  0.0000000  0.0000000  1.0000000 )
                  (  1.0000000  0.0000000  0.0000000 )


      isym = 44     inv. 120 deg rotation - cart. axis [1,-1,1]  

 cryst.   s(44) = (     0          0         -1      )
                  (     1          0          0      )
                  (     0          1          0      )

 cart.    s(44) = (  0.0000000  1.0000000  0.0000000 )
                  (  0.0000000  0.0000000  1.0000000 )
                  ( -1.0000000  0.0000000  0.0000000 )


      isym = 45     inv. 120 deg rotation - cart. axis [1,1,1]   

 cryst.   s(45) = (     0         -1          0      )
                  (     0          0         -1      )
                  (    -1          0          0      )

 cart.    s(45) = (  0.0000000  0.0000000 -1.0000000 )
                  ( -1.0000000  0.0000000  0.0000000 )
                  (  0.0000000 -1.0000000  0.0000000 )


      isym = 46     inv. 120 deg rotation - cart. axis [-1,1,-1] 

 cryst.   s(46) = (     0          1          0      )
                  (     0          0          1      )
                  (    -1          0          0      )

 cart.    s(46) = (  0.0000000  0.0000000 -1.0000000 )
                  (  1.0000000  0.0000000  0.0000000 )
                  (  0.0000000  1.0000000  0.0000000 )


      isym = 47     inv. 120 deg rotation - cart. axis [1,-1,-1] 

 cryst.   s(47) = (     0          1          0      )
                  (     0          0         -1      )
                  (     1          0          0      )

 cart.    s(47) = (  0.0000000  0.0000000  1.0000000 )
                  (  1.0000000  0.0000000  0.0000000 )
                  (  0.0000000 -1.0000000  0.0000000 )


      isym = 48     inv. 120 deg rotation - cart. axis [-1,-1,1] 

 cryst.   s(48) = (     0         -1          0      )
                  (     0          0          1      )
                  (     1          0          0      )

 cart.    s(48) = (  0.0000000  0.0000000  1.0000000 )
                  ( -1.0000000  0.0000000  0.0000000 )
                  (  0.0000000  1.0000000  0.0000000 )


   Cartesian axes

     site n.     atom                  positions (alat units)
         1           Mg  tau(   1) = (   0.2500000   0.7500000   0.2500000  )
         2           Mg  tau(   2) = (   0.7500000   0.7500000   0.2500000  )
         3           Mg  tau(   3) = (   0.2500000   0.2500000   0.7500000  )
         4           Mg  tau(   4) = (   0.7500000   0.2500000   0.7500000  )
         5           Mg  tau(   5) = (   0.7500000   0.7500000   0.7500000  )
         6           Mg  tau(   6) = (   0.2500000   0.7500000   0.7500000  )
         7           Mg  tau(   7) = (   0.7500000   0.2500000   0.2500000  )
         8           Mg  tau(   8) = (   0.2500000   0.2500000   0.2500000  )
         9           H   tau(   9) = (   0.0000000   0.0000000   0.7469588  )
        10           H   tau(  10) = (   0.0000000   0.7530412   0.5000000  )
        11           H   tau(  11) = (   0.7530412   0.0000000   0.5000000  )
        12           H   tau(  12) = (   0.0000000   0.0000000   0.2530412  )
        13           H   tau(  13) = (   0.0000000   0.7469588   0.0000000  )
        14           H   tau(  14) = (   0.2469588   0.0000000   0.5000000  )
        15           H   tau(  15) = (   0.0000000   0.5000000   0.2469588  )
        16           H   tau(  16) = (   0.0000000   0.2530412   0.0000000  )
        17           H   tau(  17) = (   0.7530412   0.5000000   0.0000000  )
        18           H   tau(  18) = (   0.0000000   0.5000000   0.7530412  )
        19           H   tau(  19) = (   0.0000000   0.2469588   0.5000000  )
        20           H   tau(  20) = (   0.2469588   0.5000000   0.0000000  )
        21           H   tau(  21) = (   0.5000000   0.0000000   0.2469588  )
        22           H   tau(  22) = (   0.5000000   0.7530412   0.0000000  )
        23           H   tau(  23) = (   0.2530412   0.0000000   0.0000000  )
        24           H   tau(  24) = (   0.5000000   0.0000000   0.7530412  )
        25           H   tau(  25) = (   0.5000000   0.7469588   0.5000000  )
        26           H   tau(  26) = (   0.7469588   0.0000000   0.0000000  )
        27           H   tau(  27) = (   0.5000000   0.5000000   0.7469588  )
        28           H   tau(  28) = (   0.5000000   0.2530412   0.5000000  )
        29           H   tau(  29) = (   0.2530412   0.5000000   0.5000000  )
        30           H   tau(  30) = (   0.5000000   0.5000000   0.2530412  )
        31           H   tau(  31) = (   0.5000000   0.2469588   0.0000000  )
        32           H   tau(  32) = (   0.7469588   0.5000000   0.5000000  )
        33           Ru  tau(  33) = (   0.0000000   0.0000000   0.0000000  )
        34           Ru  tau(  34) = (   0.0000000   0.5000000   0.5000000  )
        35           Ru  tau(  35) = (   0.5000000   0.0000000   0.5000000  )
        36           Ru  tau(  36) = (   0.5000000   0.5000000   0.0000000  )

   Crystallographic axes

     site n.     atom                  positions (cryst. coord.)
         1           Mg  tau(   1) = (  0.2500000  0.7500000  0.2500000  )
         2           Mg  tau(   2) = (  0.7500000  0.7500000  0.2500000  )
         3           Mg  tau(   3) = (  0.2500000  0.2500000  0.7500000  )
         4           Mg  tau(   4) = (  0.7500000  0.2500000  0.7500000  )
         5           Mg  tau(   5) = (  0.7500000  0.7500000  0.7500000  )
         6           Mg  tau(   6) = (  0.2500000  0.7500000  0.7500000  )
         7           Mg  tau(   7) = (  0.7500000  0.2500000  0.2500000  )
         8           Mg  tau(   8) = (  0.2500000  0.2500000  0.2500000  )
         9           H   tau(   9) = (  0.0000000  0.0000000  0.7469588  )
        10           H   tau(  10) = (  0.0000000  0.7530412  0.5000000  )
        11           H   tau(  11) = (  0.7530412  0.0000000  0.5000000  )
        12           H   tau(  12) = (  0.0000000  0.0000000  0.2530412  )
        13           H   tau(  13) = (  0.0000000  0.7469588  0.0000000  )
        14           H   tau(  14) = (  0.2469588  0.0000000  0.5000000  )
        15           H   tau(  15) = (  0.0000000  0.5000000  0.2469588  )
        16           H   tau(  16) = (  0.0000000  0.2530412  0.0000000  )
        17           H   tau(  17) = (  0.7530412  0.5000000  0.0000000  )
        18           H   tau(  18) = (  0.0000000  0.5000000  0.7530412  )
        19           H   tau(  19) = (  0.0000000  0.2469588  0.5000000  )
        20           H   tau(  20) = (  0.2469588  0.5000000  0.0000000  )
        21           H   tau(  21) = (  0.5000000  0.0000000  0.2469588  )
        22           H   tau(  22) = (  0.5000000  0.7530412  0.0000000  )
        23           H   tau(  23) = (  0.2530412  0.0000000  0.0000000  )
        24           H   tau(  24) = (  0.5000000  0.0000000  0.7530412  )
        25           H   tau(  25) = (  0.5000000  0.7469588  0.5000000  )
        26           H   tau(  26) = (  0.7469588  0.0000000  0.0000000  )
        27           H   tau(  27) = (  0.5000000  0.5000000  0.7469588  )
        28           H   tau(  28) = (  0.5000000  0.2530412  0.5000000  )
        29           H   tau(  29) = (  0.2530412  0.5000000  0.5000000  )
        30           H   tau(  30) = (  0.5000000  0.5000000  0.2530412  )
        31           H   tau(  31) = (  0.5000000  0.2469588  0.0000000  )
        32           H   tau(  32) = (  0.7469588  0.5000000  0.5000000  )
        33           Ru  tau(  33) = (  0.0000000  0.0000000  0.0000000  )
        34           Ru  tau(  34) = (  0.0000000  0.5000000  0.5000000  )
        35           Ru  tau(  35) = (  0.5000000  0.0000000  0.5000000  )
        36           Ru  tau(  36) = (  0.5000000  0.5000000  0.0000000  )

     number of k points=    20  Gaussian smearing, width (Ry)=  0.0200
                       cart. coord. in units 2pi/alat
        k(    1) = (   0.0000000   0.0000000   0.0000000), wk =   0.0058309
        k(    2) = (   0.0000000   0.0000000   0.1428571), wk =   0.0349854
        k(    3) = (   0.0000000   0.0000000   0.2857143), wk =   0.0349854
        k(    4) = (   0.0000000   0.0000000   0.4285714), wk =   0.0349854
        k(    5) = (   0.0000000   0.1428571   0.1428571), wk =   0.0699708
        k(    6) = (   0.0000000   0.1428571   0.2857143), wk =   0.1399417
        k(    7) = (   0.0000000   0.1428571   0.4285714), wk =   0.1399417
        k(    8) = (   0.0000000   0.2857143   0.2857143), wk =   0.0699708
        k(    9) = (   0.0000000   0.2857143   0.4285714), wk =   0.1399417
        k(   10) = (   0.0000000   0.4285714   0.4285714), wk =   0.0699708
        k(   11) = (   0.1428571   0.1428571   0.1428571), wk =   0.0466472
        k(   12) = (   0.1428571   0.1428571   0.2857143), wk =   0.1399417
        k(   13) = (   0.1428571   0.1428571   0.4285714), wk =   0.1399417
        k(   14) = (   0.1428571   0.2857143   0.2857143), wk =   0.1399417
        k(   15) = (   0.1428571   0.2857143   0.4285714), wk =   0.2798834
        k(   16) = (   0.1428571   0.4285714   0.4285714), wk =   0.1399417
        k(   17) = (   0.2857143   0.2857143   0.2857143), wk =   0.0466472
        k(   18) = (   0.2857143   0.2857143   0.4285714), wk =   0.1399417
        k(   19) = (   0.2857143   0.4285714   0.4285714), wk =   0.1399417
        k(   20) = (   0.4285714   0.4285714   0.4285714), wk =   0.0466472

                       cryst. coord.
        k(    1) = (   0.0000000   0.0000000   0.0000000), wk =   0.0058309
        k(    2) = (   0.0000000   0.0000000   0.1428571), wk =   0.0349854
        k(    3) = (   0.0000000   0.0000000   0.2857143), wk =   0.0349854
        k(    4) = (   0.0000000   0.0000000   0.4285714), wk =   0.0349854
        k(    5) = (   0.0000000   0.1428571   0.1428571), wk =   0.0699708
        k(    6) = (   0.0000000   0.1428571   0.2857143), wk =   0.1399417
        k(    7) = (   0.0000000   0.1428571   0.4285714), wk =   0.1399417
        k(    8) = (   0.0000000   0.2857143   0.2857143), wk =   0.0699708
        k(    9) = (   0.0000000   0.2857143   0.4285714), wk =   0.1399417
        k(   10) = (   0.0000000   0.4285714   0.4285714), wk =   0.0699708
        k(   11) = (   0.1428571   0.1428571   0.1428571), wk =   0.0466472
        k(   12) = (   0.1428571   0.1428571   0.2857143), wk =   0.1399417
        k(   13) = (   0.1428571   0.1428571   0.4285714), wk =   0.1399417
        k(   14) = (   0.1428571   0.2857143   0.2857143), wk =   0.1399417
        k(   15) = (   0.1428571   0.2857143   0.4285714), wk =   0.2798834
        k(   16) = (   0.1428571   0.4285714   0.4285714), wk =   0.1399417
        k(   17) = (   0.2857143   0.2857143   0.2857143), wk =   0.0466472
        k(   18) = (   0.2857143   0.2857143   0.4285714), wk =   0.1399417
        k(   19) = (   0.2857143   0.4285714   0.4285714), wk =   0.1399417
        k(   20) = (   0.4285714   0.4285714   0.4285714), wk =   0.0466472

     Dense  grid:  1160031 G-vectors     FFT dimensions: ( 135, 135, 135)

     Smooth grid:   223135 G-vectors     FFT dimensions: (  75,  75,  75)

     Dynamical RAM for                 wfc:       0.82 MB

     Dynamical RAM for     wfc (w. buffer):       9.07 MB

     Dynamical RAM for           str. fact:       1.66 MB

     Dynamical RAM for           local pot:       0.00 MB

     Dynamical RAM for          nlocal pot:       2.45 MB

     Dynamical RAM for                qrad:       7.91 MB

     Dynamical RAM for          rho,v,vnew:       3.75 MB

     Dynamical RAM for               rhoin:       1.25 MB

     Dynamical RAM for            rho*nmix:       8.85 MB

     Dynamical RAM for           G-vectors:       2.13 MB

     Dynamical RAM for          h,s,v(r/c):       0.70 MB

     Dynamical RAM for          <psi|beta>:       0.17 MB

     Dynamical RAM for                 psi:       1.65 MB

     Dynamical RAM for                hpsi:       1.65 MB

     Dynamical RAM for                spsi:       1.65 MB

     Dynamical RAM for      wfcinit/wfcrot:       3.78 MB

     Dynamical RAM for           addusdens:      58.36 MB

     Dynamical RAM for          addusforce:      71.18 MB

     Dynamical RAM for         addusstress:      55.73 MB

     Estimated static dynamical RAM per process >      33.90 MB

     Estimated max dynamical RAM per process >     113.93 MB

     Estimated total dynamical RAM >       6.84 GB

     Initial potential from superposition of free atoms

     starting charge     103.9896, renormalised to     104.0000
     Starting wfcs are  128 randomized atomic wfcs
     Checking if some PAW data can be deallocated... 
       PAW data deallocated on   48 nodes for type:  2
       PAW data deallocated on   60 nodes for type:  3

     total cpu time spent up to now is        3.4 secs

     Self-consistent Calculation

     iteration #  1     ecut=    90.00 Ry     beta= 0.40
     Davidson diagonalization with overlap

---- Real-time Memory Report at c_bands before calling an iterative solver
           136 MiB given to the printing process from OS
             0 MiB allocation reported by mallinfo(arena+hblkhd)
        219129 MiB available memory on the node where the printing process lives
------------------
     ethr =  1.00E-02,  avg # of iterations =  2.3

     total cpu time spent up to now is        6.1 secs

     total energy              =   -1998.57675633 Ry
     estimated scf accuracy    <       1.37390543 Ry

     iteration #  2     ecut=    90.00 Ry     beta= 0.40
     Davidson diagonalization with overlap

---- Real-time Memory Report at c_bands before calling an iterative solver
           162 MiB given to the printing process from OS
             0 MiB allocation reported by mallinfo(arena+hblkhd)
        218333 MiB available memory on the node where the printing process lives
------------------
     ethr =  1.32E-03,  avg # of iterations =  2.0

     total cpu time spent up to now is        8.5 secs

     total energy              =   -1998.50717247 Ry
     estimated scf accuracy    <       0.33550410 Ry

     iteration #  3     ecut=    90.00 Ry     beta= 0.40
     Davidson diagonalization with overlap

---- Real-time Memory Report at c_bands before calling an iterative solver
           165 MiB given to the printing process from OS
             0 MiB allocation reported by mallinfo(arena+hblkhd)
        218281 MiB available memory on the node where the printing process lives
------------------
     ethr =  3.23E-04,  avg # of iterations =  2.8

     total cpu time spent up to now is       11.2 secs

     total energy              =   -1998.56771575 Ry
     estimated scf accuracy    <       0.00441393 Ry

     iteration #  4     ecut=    90.00 Ry     beta= 0.40
     Davidson diagonalization with overlap

---- Real-time Memory Report at c_bands before calling an iterative solver
           165 MiB given to the printing process from OS
             0 MiB allocation reported by mallinfo(arena+hblkhd)
        218278 MiB available memory on the node where the printing process lives
------------------
     c_bands:  2 eigenvalues not converged
     c_bands:  1 eigenvalues not converged
     c_bands:  2 eigenvalues not converged
     c_bands:  1 eigenvalues not converged
     c_bands:  2 eigenvalues not converged
     c_bands:  1 eigenvalues not converged
     ethr =  4.24E-06,  avg # of iterations = 16.7

     total cpu time spent up to now is       17.8 secs

     total energy              =   -1998.57467987 Ry
     estimated scf accuracy    <       0.00248155 Ry

     iteration #  5     ecut=    90.00 Ry     beta= 0.40
     Davidson diagonalization with overlap

---- Real-time Memory Report at c_bands before calling an iterative solver
           166 MiB given to the printing process from OS
             0 MiB allocation reported by mallinfo(arena+hblkhd)
        215034 MiB available memory on the node where the printing process lives
------------------
     c_bands:  1 eigenvalues not converged
     ethr =  2.39E-06,  avg # of iterations = 10.3

     total cpu time spent up to now is       21.7 secs

     total energy              =   -1998.57485617 Ry
     estimated scf accuracy    <       0.00073336 Ry

     iteration #  6     ecut=    90.00 Ry     beta= 0.40
     Davidson diagonalization with overlap

---- Real-time Memory Report at c_bands before calling an iterative solver
           167 MiB given to the printing process from OS
             0 MiB allocation reported by mallinfo(arena+hblkhd)
        212950 MiB available memory on the node where the printing process lives
------------------
     ethr =  7.05E-07,  avg # of iterations =  7.0

     total cpu time spent up to now is       25.5 secs

     total energy              =   -1998.57500567 Ry
     estimated scf accuracy    <       0.00060949 Ry

     iteration #  7     ecut=    90.00 Ry     beta= 0.40
     Davidson diagonalization with overlap

---- Real-time Memory Report at c_bands before calling an iterative solver
           167 MiB given to the printing process from OS
             0 MiB allocation reported by mallinfo(arena+hblkhd)
        211912 MiB available memory on the node where the printing process lives
------------------
     ethr =  5.86E-07,  avg # of iterations =  2.0

     total cpu time spent up to now is       28.2 secs

     total energy              =   -1998.57504104 Ry
     estimated scf accuracy    <       0.00003785 Ry

     iteration #  8     ecut=    90.00 Ry     beta= 0.40
     Davidson diagonalization with overlap

---- Real-time Memory Report at c_bands before calling an iterative solver
           168 MiB given to the printing process from OS
             0 MiB allocation reported by mallinfo(arena+hblkhd)
        211907 MiB available memory on the node where the printing process lives
------------------
     ethr =  3.64E-08,  avg # of iterations = 10.1

     total cpu time spent up to now is       33.3 secs

     total energy              =   -1998.57508186 Ry
     estimated scf accuracy    <       0.00001101 Ry

     iteration #  9     ecut=    90.00 Ry     beta= 0.40
     Davidson diagonalization with overlap

---- Real-time Memory Report at c_bands before calling an iterative solver
           169 MiB given to the printing process from OS
             0 MiB allocation reported by mallinfo(arena+hblkhd)
        211907 MiB available memory on the node where the printing process lives
------------------
     c_bands:  2 eigenvalues not converged
     ethr =  1.06E-08,  avg # of iterations =  5.5

     total cpu time spent up to now is       36.5 secs

     total energy              =   -1998.57508327 Ry
     estimated scf accuracy    <       0.00000286 Ry

     iteration # 10     ecut=    90.00 Ry     beta= 0.40
     Davidson diagonalization with overlap

---- Real-time Memory Report at c_bands before calling an iterative solver
           169 MiB given to the printing process from OS
             0 MiB allocation reported by mallinfo(arena+hblkhd)
        211898 MiB available memory on the node where the printing process lives
------------------
     c_bands:  1 eigenvalues not converged
     ethr =  2.75E-09,  avg # of iterations =  6.1

     total cpu time spent up to now is       40.2 secs

     total energy              =   -1998.57508351 Ry
     estimated scf accuracy    <       0.00000165 Ry

     iteration # 11     ecut=    90.00 Ry     beta= 0.40
     Davidson diagonalization with overlap

---- Real-time Memory Report at c_bands before calling an iterative solver
           170 MiB given to the printing process from OS
             0 MiB allocation reported by mallinfo(arena+hblkhd)
        218245 MiB available memory on the node where the printing process lives
------------------
     c_bands:  1 eigenvalues not converged
     ethr =  1.58E-09,  avg # of iterations =  3.6

     total cpu time spent up to now is       43.3 secs

     total energy              =   -1998.57508373 Ry
     estimated scf accuracy    <       0.00000006 Ry

     iteration # 12     ecut=    90.00 Ry     beta= 0.40
     Davidson diagonalization with overlap

---- Real-time Memory Report at c_bands before calling an iterative solver
           170 MiB given to the printing process from OS
             0 MiB allocation reported by mallinfo(arena+hblkhd)
        218223 MiB available memory on the node where the printing process lives
------------------
     c_bands:  1 eigenvalues not converged
     ethr =  6.21E-11,  avg # of iterations = 14.2

     total cpu time spent up to now is       50.8 secs

     total energy              =   -1998.57508389 Ry
     estimated scf accuracy    <       0.00000009 Ry

     iteration # 13     ecut=    90.00 Ry     beta= 0.40
     Davidson diagonalization with overlap

---- Real-time Memory Report at c_bands before calling an iterative solver
           170 MiB given to the printing process from OS
             0 MiB allocation reported by mallinfo(arena+hblkhd)
        212916 MiB available memory on the node where the printing process lives
------------------
     ethr =  6.21E-11,  avg # of iterations =  4.0

     total cpu time spent up to now is       53.8 secs

     End of self-consistent calculation

          k = 0.0000 0.0000 0.0000 ( 28017 PWs)   bands (ev):

   -65.0574 -65.0573 -65.0573 -65.0572 -35.1698 -35.1698 -35.1698 -35.1688
   -35.1688 -35.1688 -35.1687 -35.1687 -35.1687 -35.1681 -35.1681 -35.1681
    -2.7095  -0.6224  -0.6224  -0.6224   1.3510   1.3510   1.3510   1.6063
     1.6063   1.6063   1.8614   1.8614   2.1996   2.1996   2.1996   3.1008
     3.1008   3.1008   3.1008   3.1008   3.1008   3.8346   3.8346   3.8346
     4.4567   4.4567   4.4567   4.5116   4.5116   4.5116   5.4551   5.4551
     5.4551   5.4551   5.4551   5.4551   8.4623   8.4623   8.4623  10.7789
    10.7789  10.7789  12.2784  12.2907  12.2907  12.2911

     occupation numbers 
     1.0000   1.0000   1.0000   1.0000   1.0000   1.0000   1.0000   1.0000
     1.0000   1.0000   1.0000   1.0000   1.0000   1.0000   1.0000   1.0000
     1.0000   1.0000   1.0000   1.0000   1.0000   1.0000   1.0000   1.0000
     1.0000   1.0000   1.0000   1.0000   1.0000   1.0000   1.0000   1.0000
     1.0000   1.0000   1.0000   1.0000   1.0000   1.0000   1.0000   1.0000
     1.0000   1.0000   1.0000   1.0000   1.0000   1.0000   1.0000   1.0000
     1.0000   1.0000   1.0000   1.0000   0.0000   0.0000   0.0000   0.0000
     0.0000   0.0000   0.0000   0.0000   0.0000   0.0000

          k = 0.0000 0.0000 0.1429 ( 27893 PWs)   bands (ev):

   -65.0574 -65.0573 -65.0573 -65.0572 -35.1698 -35.1698 -35.1697 -35.1688
   -35.1688 -35.1688 -35.1687 -35.1687 -35.1687 -35.1682 -35.1682 -35.1682
    -2.6392  -0.7732  -0.5569  -0.5569   1.0019   1.3974   1.3974   1.4345
     1.4345   1.7748   1.8772   2.0855   2.0855   2.1818   2.2098   2.8496
     2.8496   3.1309   3.1309   3.3315   3.3315   3.8648   4.0949   4.0949
     4.1547   4.1547   4.4487   4.4743   4.8043   4.8043   5.4291   5.4291
     5.4536   5.4536   5.4551   5.4552   8.4637   8.6157   8.6157  10.7967
    10.8176  10.8176  11.6488  11.7699  12.2337  12.2337

     occupation numbers 
     1.0000   1.0000   1.0000   1.0000   1.0000   1.0000   1.0000   1.0000
     1.0000   1.0000   1.0000   1.0000   1.0000   1.0000   1.0000   1.0000
     1.0000   1.0000   1.0000   1.0000   1.0000   1.0000   1.0000   1.0000
     1.0000   1.0000   1.0000   1.0000   1.0000   1.0000   1.0000   1.0000
     1.0000   1.0000   1.0000   1.0000   1.0000   1.0000   1.0000   1.0000
     1.0000   1.0000   1.0000   1.0000   1.0000   1.0000   1.0000   1.0000
     1.0000   1.0000   1.0000   1.0000   0.0000   0.0000   0.0000   0.0000
     0.0000   0.0000   0.0000   0.0000   0.0000   0.0000

          k = 0.0000 0.0000 0.2857 ( 27906 PWs)   bands (ev):

   -65.0574 -65.0573 -65.0573 -65.0572 -35.1696 -35.1696 -35.1695 -35.1689
   -35.1689 -35.1688 -35.1687 -35.1686 -35.1686 -35.1684 -35.1682 -35.1682
    -2.4313  -1.1736  -0.3679  -0.3679   0.8927   1.0000   1.0000   1.5356
     1.5356   1.5518   1.9220   2.0081   2.0081   2.1326   2.4452   2.4452
     2.9943   3.2216   3.2216   3.6731   3.6731   3.8483   3.8483   3.9511
     4.3720   4.3834   4.5165   4.5165   5.0770   5.0770   5.3417   5.3417
     5.4401   5.4401   5.4553   5.4553   8.5254   9.0675   9.0675  10.3944
    10.8535  10.9588  10.9588  11.3936  12.3228  12.3229

     occupation numbers 
     1.0000   1.0000   1.0000   1.0000   1.0000   1.0000   1.0000   1.0000
     1.0000   1.0000   1.0000   1.0000   1.0000   1.0000   1.0000   1.0000
     1.0000   1.0000   1.0000   1.0000   1.0000   1.0000   1.0000   1.0000
     1.0000   1.0000   1.0000   1.0000   1.0000   1.0000   1.0000   1.0000
     1.0000   1.0000   1.0000   1.0000   1.0000   1.0000   1.0000   1.0000
     1.0000   1.0000   1.0000   1.0000   1.0000   1.0000   1.0000   1.0000
     1.0000   1.0000   1.0000   1.0000   0.0000   0.0000   0.0000   0.0000
     0.0000   0.0000   0.0000   0.0000   0.0000   0.0000

          k = 0.0000 0.0000 0.4286 ( 27882 PWs)   bands (ev):

   -65.0573 -65.0573 -65.0573 -65.0572 -35.1694 -35.1694 -35.1692 -35.1692
   -35.1692 -35.1688 -35.1688 -35.1687 -35.1685 -35.1685 -35.1684 -35.1684
    -2.0960  -1.6578  -0.1044  -0.1044   0.5667   0.5667   1.0237   1.2730
     1.7622   1.7622   1.9880   1.9882   1.9882   2.0631   2.0702   2.0702
     3.3730   3.3730   3.5837   3.5837   3.6898   3.8735   3.8735   4.0803
     4.1603   4.2302   4.8927   4.8927   5.1697   5.1697   5.2750   5.2750
     5.3903   5.3903   5.4554   5.4554   8.7907   9.4047   9.7053   9.7053
    10.9596  11.1320  11.2547  11.2548  11.3482  11.7306

     occupation numbers 
     1.0000   1.0000   1.0000   1.0000   1.0000   1.0000   1.0000   1.0000
     1.0000   1.0000   1.0000   1.0000   1.0000   1.0000   1.0000   1.0000
     1.0000   1.0000   1.0000   1.0000   1.0000   1.0000   1.0000   1.0000
     1.0000   1.0000   1.0000   1.0000   1.0000   1.0000   1.0000   1.0000
     1.0000   1.0000   1.0000   1.0000   1.0000   1.0000   1.0000   1.0000
     1.0000   1.0000   1.0000   1.0000   1.0000   1.0000   1.0000   1.0000
     1.0000   1.0000   1.0000   1.0000   0.0000   0.0000   0.0000   0.0000
     0.0000   0.0000   0.0000   0.0000   0.0000   0.0000

          k = 0.0000 0.1429 0.1429 ( 27913 PWs)   bands (ev):

   -65.0574 -65.0573 -65.0573 -65.0572 -35.1697 -35.1697 -35.1697 -35.1689
   -35.1688 -35.1687 -35.1687 -35.1687 -35.1687 -35.1683 -35.1682 -35.1681
    -2.5690  -0.7054  -0.7054  -0.4916   0.9829   0.9829   1.2641   1.4435
     1.7501   1.8328   1.9293   1.9293   1.9391   2.2082   2.2082   2.8271
     2.8837   2.8837   3.3918   3.3918   3.4927   3.9007   3.9551   4.1199
     4.1199   4.2374   4.5599   4.6572   4.8428   4.8753   5.4124   5.4299
     5.4299   5.4479   5.4530   5.4530   8.6109   8.6109   8.7392  10.8347
    10.8347  10.8685  11.5786  11.6348  11.6433  12.6933

     occupation numbers 
     1.0000   1.0000   1.0000   1.0000   1.0000   1.0000   1.0000   1.0000
     1.0000   1.0000   1.0000   1.0000   1.0000   1.0000   1.0000   1.0000
     1.0000   1.0000   1.0000   1.0000   1.0000   1.0000   1.0000   1.0000
     1.0000   1.0000   1.0000   1.0000   1.0000   1.0000   1.0000   1.0000
     1.0000   1.0000   1.0000   1.0000   1.0000   1.0000   1.0000   1.0000
     1.0000   1.0000   1.0000   1.0000   1.0000   1.0000   1.0000   1.0000
     1.0000   1.0000   1.0000   1.0000   0.0000   0.0000   0.0000   0.0000
     0.0000   0.0000   0.0000   0.0000   0.0000   0.0000

          k = 0.0000 0.1429 0.2857 ( 27907 PWs)   bands (ev):

   -65.0574 -65.0573 -65.0573 -65.0572 -35.1696 -35.1696 -35.1695 -35.1690
   -35.1689 -35.1687 -35.1687 -35.1687 -35.1686 -35.1686 -35.1683 -35.1682
    -2.3614  -1.1044  -0.5066  -0.3031   0.8249   0.8344   0.8825   1.5558
     1.5809   1.6237   1.7926   1.8451   1.9775   2.2456   2.4834   2.6418
     2.7317   2.9852   3.5880   3.6333   3.6549   3.7624   3.8226   4.1914
     4.5287   4.5334   4.5536   4.6710   5.0723   5.0806   5.3335   5.3479
     5.4233   5.4376   5.4452   5.4513   8.6547   9.0411   9.1024  10.4416
    10.8879  10.9741  11.0491  11.3240  11.7030  12.0059

     occupation numbers 
     1.0000   1.0000   1.0000   1.0000   1.0000   1.0000   1.0000   1.0000
     1.0000   1.0000   1.0000   1.0000   1.0000   1.0000   1.0000   1.0000
     1.0000   1.0000   1.0000   1.0000   1.0000   1.0000   1.0000   1.0000
     1.0000   1.0000   1.0000   1.0000   1.0000   1.0000   1.0000   1.0000
     1.0000   1.0000   1.0000   1.0000   1.0000   1.0000   1.0000   1.0000
     1.0000   1.0000   1.0000   1.0000   1.0000   1.0000   1.0000   1.0000
     1.0000   1.0000   1.0000   1.0000   0.0000   0.0000   0.0000   0.0000
     0.0000   0.0000   0.0000   0.0000   0.0000   0.0000

          k = 0.0000 0.1429 0.4286 ( 27907 PWs)   bands (ev):

   -65.0573 -65.0573 -65.0573 -65.0572 -35.1694 -35.1694 -35.1692 -35.1692
   -35.1691 -35.1689 -35.1687 -35.1686 -35.1685 -35.1685 -35.1684 -35.1683
    -2.0265  -1.5885  -0.2004  -0.0512   0.3849   0.4921   1.0232   1.2790
     1.5892   1.6801   1.8059   1.8908   1.9407   2.1116   2.3203   2.4505
     3.0811   3.1519   3.3253   3.3787   3.9855   4.0083   4.0831   4.2983
     4.4211   4.4777   4.9008   4.9037   5.1692   5.1797   5.2688   5.2762
     5.3840   5.3851   5.4466   5.4490   8.8932   9.4783   9.6093   9.6194
    10.9826  11.1256  11.1924  11.2670  11.3074  11.4374

     occupation numbers 
     1.0000   1.0000   1.0000   1.0000   1.0000   1.0000   1.0000   1.0000
     1.0000   1.0000   1.0000   1.0000   1.0000   1.0000   1.0000   1.0000
     1.0000   1.0000   1.0000   1.0000   1.0000   1.0000   1.0000   1.0000
     1.0000   1.0000   1.0000   1.0000   1.0000   1.0000   1.0000   1.0000
     1.0000   1.0000   1.0000   1.0000   1.0000   1.0000   1.0000   1.0000
     1.0000   1.0000   1.0000   1.0000   1.0000   1.0000   1.0000   1.0000
     1.0000   1.0000   1.0000   1.0000   0.0000   0.0000   0.0000   0.0000
     0.0000   0.0000   0.0000   0.0000   0.0000   0.0000

          k = 0.0000 0.2857 0.2857 ( 27901 PWs)   bands (ev):

   -65.0573 -65.0573 -65.0573 -65.0572 -35.1695 -35.1695 -35.1694 -35.1692
   -35.1688 -35.1688 -35.1688 -35.1686 -35.1686 -35.1685 -35.1684 -35.1682
    -2.1545  -0.8998  -0.8998  -0.1182   0.3905   0.8037   0.8037   1.5407
     1.6045   1.6476   1.6476   1.6521   1.7154   2.5973   2.5973   2.6407
     2.6407   2.7387   3.2755   3.3358   4.0686   4.0686   4.1897   4.5809
     4.5809   4.6663   4.6953   5.0248   5.0465   5.1333   5.2890   5.3578
     5.3578   5.4250   5.4308   5.4308   9.0279   9.0279   9.2332  10.5525
    10.6497  11.0180  11.0180  11.2215  11.3245  11.6588

     occupation numbers 
     1.0000   1.0000   1.0000   1.0000   1.0000   1.0000   1.0000   1.0000
     1.0000   1.0000   1.0000   1.0000   1.0000   1.0000   1.0000   1.0000
     1.0000   1.0000   1.0000   1.0000   1.0000   1.0000   1.0000   1.0000
     1.0000   1.0000   1.0000   1.0000   1.0000   1.0000   1.0000   1.0000
     1.0000   1.0000   1.0000   1.0000   1.0000   1.0000   1.0000   1.0000
     1.0000   1.0000   1.0000   1.0000   1.0000   1.0000   1.0000   1.0000
     1.0000   1.0000   1.0000   1.0000   0.0000   0.0000   0.0000   0.0000
     0.0000   0.0000   0.0000   0.0000   0.0000   0.0000

          k = 0.0000 0.2857 0.4286 ( 27899 PWs)   bands (ev):

   -65.0573 -65.0573 -65.0573 -65.0572 -35.1694 -35.1693 -35.1693 -35.1692
   -35.1691 -35.1690 -35.1687 -35.1685 -35.1685 -35.1685 -35.1684 -35.1683
    -1.8209  -1.3837  -0.5697  -0.1441   0.2151   0.5507   0.9923   1.2877
     1.4817   1.5019   1.6172   1.6359   1.9358   2.2347   2.6595   2.7097
     2.7832   2.8885   3.0340   3.0620   4.3358   4.4006   4.5232   4.6476
     4.7075   4.8770   4.9210   4.9233   5.1596   5.2005   5.2616   5.2625
     5.3457   5.3727   5.4177   5.4225   9.1890   9.4767   9.4847   9.6963
    10.9007  10.9555  11.0817  11.1491  11.1600  11.2932

     occupation numbers 
     1.0000   1.0000   1.0000   1.0000   1.0000   1.0000   1.0000   1.0000
     1.0000   1.0000   1.0000   1.0000   1.0000   1.0000   1.0000   1.0000
     1.0000   1.0000   1.0000   1.0000   1.0000   1.0000   1.0000   1.0000
     1.0000   1.0000   1.0000   1.0000   1.0000   1.0000   1.0000   1.0000
     1.0000   1.0000   1.0000   1.0000   1.0000   1.0000   1.0000   1.0000
     1.0000   1.0000   1.0000   1.0000   1.0000   1.0000   1.0000   1.0000
     1.0000   1.0000   1.0000   1.0000   0.0000   0.0000   0.0000   0.0000
     0.0000   0.0000   0.0000   0.0000   0.0000   0.0000

          k = 0.0000 0.4286 0.4286 ( 27906 PWs)   bands (ev):

   -65.0573 -65.0573 -65.0573 -65.0572 -35.1694 -35.1694 -35.1694 -35.1693
   -35.1691 -35.1689 -35.1688 -35.1687 -35.1684 -35.1684 -35.1684 -35.1683
    -1.4887  -1.0527  -1.0527  -0.6175   0.4823   0.8081   0.8081   1.1495
     1.4024   1.4163   1.4226   1.4226   2.1483   2.4358   2.4358   2.7073
     2.7994   2.8294   2.8294   2.9269   4.7945   4.7945   4.8509   4.8902
     4.9322   4.9353   4.9353   5.0580   5.1032   5.1962   5.2074   5.2074
     5.2906   5.3639   5.3639   5.3786   9.5011   9.5248   9.5248   9.8320
    10.3109  10.6248  10.6248  10.7879  11.2311  11.2958

     occupation numbers 
     1.0000   1.0000   1.0000   1.0000   1.0000   1.0000   1.0000   1.0000
     1.0000   1.0000   1.0000   1.0000   1.0000   1.0000   1.0000   1.0000
     1.0000   1.0000   1.0000   1.0000   1.0000   1.0000   1.0000   1.0000
     1.0000   1.0000   1.0000   1.0000   1.0000   1.0000   1.0000   1.0000
     1.0000   1.0000   1.0000   1.0000   1.0000   1.0000   1.0000   1.0000
     1.0000   1.0000   1.0000   1.0000   1.0000   1.0000   1.0000   1.0000
     1.0000   1.0000   1.0000   1.0000   0.0000   0.0000   0.0000   0.0000
     0.0000   0.0000   0.0000   0.0000   0.0000   0.0000

          k = 0.1429 0.1429 0.1429 ( 27904 PWs)   bands (ev):

   -65.0574 -65.0573 -65.0573 -65.0572 -35.1697 -35.1697 -35.1697 -35.1688
   -35.1688 -35.1688 -35.1687 -35.1686 -35.1686 -35.1685 -35.1682 -35.1682
    -2.4989  -0.6378  -0.6378  -0.6378   0.9429   0.9429   0.9429   1.7606
     1.7606   1.8911   1.8911   1.8911   1.9313   1.9313   1.9313   2.9800
     2.9800   2.9800   3.4726   3.5108   3.5108   3.5108   4.2653   4.2653
     4.2653   4.3178   4.3178   4.8558   4.8913   4.8913   5.4138   5.4138
     5.4138   5.4466   5.4466   5.4466   8.7293   8.7293   8.7293  10.8833
    10.8833  10.8833  11.2434  11.6496  11.6497  12.3313

     occupation numbers 
     1.0000   1.0000   1.0000   1.0000   1.0000   1.0000   1.0000   1.0000
     1.0000   1.0000   1.0000   1.0000   1.0000   1.0000   1.0000   1.0000
     1.0000   1.0000   1.0000   1.0000   1.0000   1.0000   1.0000   1.0000
     1.0000   1.0000   1.0000   1.0000   1.0000   1.0000   1.0000   1.0000
     1.0000   1.0000   1.0000   1.0000   1.0000   1.0000   1.0000   1.0000
     1.0000   1.0000   1.0000   1.0000   1.0000   1.0000   1.0000   1.0000
     1.0000   1.0000   1.0000   1.0000   0.0000   0.0000   0.0000   0.0000
     0.0000   0.0000   0.0000   0.0000   0.0000   0.0000

          k = 0.1429 0.1429 0.2857 ( 27924 PWs)   bands (ev):

   -65.0574 -65.0573 -65.0573 -65.0572 -35.1696 -35.1696 -35.1695 -35.1690
   -35.1689 -35.1687 -35.1687 -35.1686 -35.1686 -35.1686 -35.1682 -35.1682
    -2.2916  -1.0357  -0.4393  -0.4393   0.7266   0.7266   0.8632   1.5594
     1.6214   1.6214   1.7896   1.8669   1.8669   1.9085   2.2630   2.8583
     2.8583   3.0726   3.4430   3.5691   3.8681   3.8681   4.0565   4.3515
     4.4247   4.5739   4.5739   4.8532   5.0404   5.1242   5.3395   5.3395
     5.4097   5.4331   5.4423   5.4423   8.7584   9.0748   9.0748  10.4547
    10.9263  11.0562  11.0562  11.1525  12.0001  12.0019

     occupation numbers 
     1.0000   1.0000   1.0000   1.0000   1.0000   1.0000   1.0000   1.0000
     1.0000   1.0000   1.0000   1.0000   1.0000   1.0000   1.0000   1.0000
     1.0000   1.0000   1.0000   1.0000   1.0000   1.0000   1.0000   1.0000
     1.0000   1.0000   1.0000   1.0000   1.0000   1.0000   1.0000   1.0000
     1.0000   1.0000   1.0000   1.0000   1.0000   1.0000   1.0000   1.0000
     1.0000   1.0000   1.0000   1.0000   1.0000   1.0000   1.0000   1.0000
     1.0000   1.0000   1.0000   1.0000   0.0000   0.0000   0.0000   0.0000
     0.0000   0.0000   0.0000   0.0000   0.0000   0.0000

          k = 0.1429 0.1429 0.4286 ( 27888 PWs)   bands (ev):

   -65.0573 -65.0573 -65.0573 -65.0572 -35.1695 -35.1694 -35.1693 -35.1691
   -35.1691 -35.1690 -35.1686 -35.1686 -35.1685 -35.1685 -35.1683 -35.1683
    -1.9573  -1.5197  -0.1330  -0.1330   0.3316   0.3316   1.0187   1.2835
     1.5871   1.5871   1.7978   1.7978   1.8302   1.8728   2.5099   2.7475
     2.7475   2.7594   3.6761   3.8388   3.9732   4.0859   4.0859   4.2947
     4.5097   4.7226   4.9118   4.9118   5.1788   5.1788   5.2546   5.2881
     5.3772   5.3812   5.4408   5.4409   8.9744   9.5328   9.5363   9.5363
    10.9898  11.0563  11.1836  11.1837  11.4214  11.4214

     occupation numbers 
     1.0000   1.0000   1.0000   1.0000   1.0000   1.0000   1.0000   1.0000
     1.0000   1.0000   1.0000   1.0000   1.0000   1.0000   1.0000   1.0000
     1.0000   1.0000   1.0000   1.0000   1.0000   1.0000   1.0000   1.0000
     1.0000   1.0000   1.0000   1.0000   1.0000   1.0000   1.0000   1.0000
     1.0000   1.0000   1.0000   1.0000   1.0000   1.0000   1.0000   1.0000
     1.0000   1.0000   1.0000   1.0000   1.0000   1.0000   1.0000   1.0000
     1.0000   1.0000   1.0000   1.0000   0.0000   0.0000   0.0000   0.0000
     0.0000   0.0000   0.0000   0.0000   0.0000   0.0000

          k = 0.1429 0.2857 0.2857 ( 27906 PWs)   bands (ev):

   -65.0573 -65.0573 -65.0573 -65.0572 -35.1696 -35.1695 -35.1695 -35.1690
   -35.1689 -35.1688 -35.1687 -35.1686 -35.1685 -35.1685 -35.1683 -35.1682
    -2.0853  -0.8325  -0.8325  -0.2421   0.3811   0.7480   0.7480   1.5445
     1.6020   1.6334   1.6334   1.6334   1.6480   1.9934   1.9934   2.6168
     3.0648   3.2906   3.2906   3.9733   4.0582   4.0582   4.1964   4.6154
     4.6374   4.6374   4.6895   4.9710   5.1163   5.1784   5.2964   5.3496
     5.3496   5.4220   5.4242   5.4242   9.0573   9.0573   9.1993  10.4147
    10.6968  11.0624  11.0625  11.2633  11.3049  11.7015

     occupation numbers 
     1.0000   1.0000   1.0000   1.0000   1.0000   1.0000   1.0000   1.0000
     1.0000   1.0000   1.0000   1.0000   1.0000   1.0000   1.0000   1.0000
     1.0000   1.0000   1.0000   1.0000   1.0000   1.0000   1.0000   1.0000
     1.0000   1.0000   1.0000   1.0000   1.0000   1.0000   1.0000   1.0000
     1.0000   1.0000   1.0000   1.0000   1.0000   1.0000   1.0000   1.0000
     1.0000   1.0000   1.0000   1.0000   1.0000   1.0000   1.0000   1.0000
     1.0000   1.0000   1.0000   1.0000   0.0000   0.0000   0.0000   0.0000
     0.0000   0.0000   0.0000   0.0000   0.0000   0.0000

          k = 0.1429 0.2857 0.4286 ( 27920 PWs)   bands (ev):

   -65.0573 -65.0573 -65.0573 -65.0572 -35.1695 -35.1695 -35.1694 -35.1692
   -35.1690 -35.1689 -35.1686 -35.1685 -35.1685 -35.1684 -35.1684 -35.1683
    -1.7525  -1.3162  -0.5055  -0.0797   0.0685   0.4434   0.9690   1.2858
     1.4794   1.4993   1.6086   1.6238   1.7247   1.8515   2.1308   2.3179
     3.1122   3.1662   3.5835   3.7787   4.3644   4.4045   4.4216   4.6170
     4.7630   4.9318   4.9334   4.9422   5.1690   5.1989   5.2433   5.2877
     5.3403   5.3679   5.4121   5.4154   9.2096   9.4207   9.4235   9.6946
    10.7764  10.9590  10.9914  11.0988  11.2799  11.3916

     occupation numbers 
     1.0000   1.0000   1.0000   1.0000   1.0000   1.0000   1.0000   1.0000
     1.0000   1.0000   1.0000   1.0000   1.0000   1.0000   1.0000   1.0000
     1.0000   1.0000   1.0000   1.0000   1.0000   1.0000   1.0000   1.0000
     1.0000   1.0000   1.0000   1.0000   1.0000   1.0000   1.0000   1.0000
     1.0000   1.0000   1.0000   1.0000   1.0000   1.0000   1.0000   1.0000
     1.0000   1.0000   1.0000   1.0000   1.0000   1.0000   1.0000   1.0000
     1.0000   1.0000   1.0000   1.0000   0.0000   0.0000   0.0000   0.0000
     0.0000   0.0000   0.0000   0.0000   0.0000   0.0000

          k = 0.1429 0.4286 0.4286 ( 27923 PWs)   bands (ev):

   -65.0573 -65.0573 -65.0573 -65.0572 -35.1696 -35.1695 -35.1695 -35.1694
   -35.1689 -35.1687 -35.1687 -35.1686 -35.1684 -35.1684 -35.1684 -35.1683
    -1.4218  -0.9879  -0.9879  -0.5578   0.3778   0.7392   0.7392   1.1165
     1.4031   1.4156   1.4198   1.4198   1.8151   1.9489   1.9489   2.0873
     3.2904   3.4205   3.4205   3.5977   4.7748   4.7748   4.8467   4.8793
     4.9431   4.9603   4.9603   5.0411   5.1126   5.1995   5.2036   5.2036
     5.2955   5.3570   5.3570   5.3707   9.4468   9.4734   9.4734   9.7557
    10.3431  10.6281  10.6281  10.7726  11.2215  11.3146

     occupation numbers 
     1.0000   1.0000   1.0000   1.0000   1.0000   1.0000   1.0000   1.0000
     1.0000   1.0000   1.0000   1.0000   1.0000   1.0000   1.0000   1.0000
     1.0000   1.0000   1.0000   1.0000   1.0000   1.0000   1.0000   1.0000
     1.0000   1.0000   1.0000   1.0000   1.0000   1.0000   1.0000   1.0000
     1.0000   1.0000   1.0000   1.0000   1.0000   1.0000   1.0000   1.0000
     1.0000   1.0000   1.0000   1.0000   1.0000   1.0000   1.0000   1.0000
     1.0000   1.0000   1.0000   1.0000   0.0000   0.0000   0.0000   0.0000
     0.0000   0.0000   0.0000   0.0000   0.0000   0.0000

          k = 0.2857 0.2857 0.2857 ( 27910 PWs)   bands (ev):

   -65.0573 -65.0573 -65.0573 -65.0572 -35.1696 -35.1696 -35.1696 -35.1692
   -35.1688 -35.1688 -35.1687 -35.1685 -35.1685 -35.1685 -35.1683 -35.1683
    -1.8806  -0.6355  -0.6355  -0.6355   0.5226   0.5226   0.5226   1.5549
     1.5549   1.5945   1.5945   1.5945   1.6015   1.6015   1.6015   2.0089
     3.6961   3.6961   3.6961   4.2203   4.2203   4.2203   4.4771   4.4771
     4.7634   4.7634   4.7634   4.9150   5.2238   5.2238   5.3123   5.3124
     5.3124   5.4022   5.4022   5.4022   9.1650   9.1650   9.1650  10.1889
    10.8369  10.8370  11.1942  11.1942  11.1942  11.5714

     occupation numbers 
     1.0000   1.0000   1.0000   1.0000   1.0000   1.0000   1.0000   1.0000
     1.0000   1.0000   1.0000   1.0000   1.0000   1.0000   1.0000   1.0000
     1.0000   1.0000   1.0000   1.0000   1.0000   1.0000   1.0000   1.0000
     1.0000   1.0000   1.0000   1.0000   1.0000   1.0000   1.0000   1.0000
     1.0000   1.0000   1.0000   1.0000   1.0000   1.0000   1.0000   1.0000
     1.0000   1.0000   1.0000   1.0000   1.0000   1.0000   1.0000   1.0000
     1.0000   1.0000   1.0000   1.0000   0.0000   0.0000   0.0000   0.0000
     0.0000   0.0000   0.0000   0.0000   0.0000   0.0000

          k = 0.2857 0.2857 0.4286 ( 27939 PWs)   bands (ev):

   -65.0573 -65.0573 -65.0573 -65.0572 -35.1697 -35.1697 -35.1696 -35.1694
   -35.1687 -35.1687 -35.1685 -35.1685 -35.1684 -35.1684 -35.1683 -35.1683
    -1.5504  -1.1175  -0.3380  -0.3380   0.1482   0.1482   0.8363   1.2540
     1.4700   1.4700   1.5629   1.5629   1.5688   1.5829   1.6190   1.6969
     3.7360   3.7360   4.2519   4.2706   4.3559   4.5149   4.5149   4.5410
     4.8965   4.9577   4.9577   4.9901   5.1901   5.1902   5.2425   5.2947
     5.3192   5.3381   5.3835   5.3835   9.2885   9.3390   9.3390   9.7047
    10.6527  10.9143  10.9439  10.9439  11.0565  11.4111

     occupation numbers 
     1.0000   1.0000   1.0000   1.0000   1.0000   1.0000   1.0000   1.0000
     1.0000   1.0000   1.0000   1.0000   1.0000   1.0000   1.0000   1.0000
     1.0000   1.0000   1.0000   1.0000   1.0000   1.0000   1.0000   1.0000
     1.0000   1.0000   1.0000   1.0000   1.0000   1.0000   1.0000   1.0000
     1.0000   1.0000   1.0000   1.0000   1.0000   1.0000   1.0000   1.0000
     1.0000   1.0000   1.0000   1.0000   1.0000   1.0000   1.0000   1.0000
     1.0000   1.0000   1.0000   1.0000   0.0000   0.0000   0.0000   0.0000
     0.0000   0.0000   0.0000   0.0000   0.0000   0.0000

          k = 0.2857 0.4286 0.4286 ( 27919 PWs)   bands (ev):

   -65.0573 -65.0573 -65.0573 -65.0572 -35.1698 -35.1697 -35.1697 -35.1696
   -35.1686 -35.1685 -35.1685 -35.1684 -35.1684 -35.1684 -35.1683 -35.1683
    -1.2255  -0.8026  -0.8026  -0.4230   0.1184   0.4917   0.4917   0.9406
     1.4048   1.4133   1.4133   1.4134   1.5204   1.5528   1.5528   1.5758
     4.0110   4.1375   4.1375   4.3106   4.7501   4.7501   4.8377   4.8565
     4.9767   4.9944   5.0050   5.0050   5.1369   5.1929   5.1929   5.2013
     5.2813   5.3157   5.3157   5.3285   9.3670   9.3998   9.3998   9.6361
    10.4293  10.6477  10.6478  10.7262  10.9472  11.1092

     occupation numbers 
     1.0000   1.0000   1.0000   1.0000   1.0000   1.0000   1.0000   1.0000
     1.0000   1.0000   1.0000   1.0000   1.0000   1.0000   1.0000   1.0000
     1.0000   1.0000   1.0000   1.0000   1.0000   1.0000   1.0000   1.0000
     1.0000   1.0000   1.0000   1.0000   1.0000   1.0000   1.0000   1.0000
     1.0000   1.0000   1.0000   1.0000   1.0000   1.0000   1.0000   1.0000
     1.0000   1.0000   1.0000   1.0000   1.0000   1.0000   1.0000   1.0000
     1.0000   1.0000   1.0000   1.0000   0.0000   0.0000   0.0000   0.0000
     0.0000   0.0000   0.0000   0.0000   0.0000   0.0000

          k = 0.4286 0.4286 0.4286 ( 27949 PWs)   bands (ev):

   -65.0573 -65.0573 -65.0573 -65.0572 -35.1699 -35.1698 -35.1698 -35.1698
   -35.1684 -35.1684 -35.1684 -35.1684 -35.1684 -35.1684 -35.1683 -35.1683
    -0.9167  -0.5533  -0.5533  -0.5533   0.1472   0.1472   0.1472   0.5344
     1.4072   1.4072   1.4072   1.4074   1.4074   1.4104   1.4105   1.4105
     4.5999   4.5999   4.5999   4.8323   4.8324   4.8324   4.8381   4.8381
     4.9148   5.0407   5.0407   5.0408   5.1666   5.1666   5.1666   5.1907
     5.1907   5.1987   5.1987   5.1987   9.4086   9.4086   9.4086   9.5525
    10.5415  10.5419  10.6474  10.6475  10.6702  10.6829

     occupation numbers 
     1.0000   1.0000   1.0000   1.0000   1.0000   1.0000   1.0000   1.0000
     1.0000   1.0000   1.0000   1.0000   1.0000   1.0000   1.0000   1.0000
     1.0000   1.0000   1.0000   1.0000   1.0000   1.0000   1.0000   1.0000
     1.0000   1.0000   1.0000   1.0000   1.0000   1.0000   1.0000   1.0000
     1.0000   1.0000   1.0000   1.0000   1.0000   1.0000   1.0000   1.0000
     1.0000   1.0000   1.0000   1.0000   1.0000   1.0000   1.0000   1.0000
     1.0000   1.0000   1.0000   1.0000   0.0000   0.0000   0.0000   0.0000
     0.0000   0.0000   0.0000   0.0000   0.0000   0.0000

     the Fermi energy is     6.9652 ev

!    total energy              =   -1998.57508391 Ry
     estimated scf accuracy    <          1.7E-09 Ry
     smearing contrib. (-TS)   =      -0.00000000 Ry
     internal energy E=F+TS    =   -1998.57508391 Ry

     The total energy is F=E-TS. E is the sum of the following terms:
     one-electron contribution =    -514.50576502 Ry
     hartree contribution      =     286.41226631 Ry
     xc contribution           =    -108.78969076 Ry
     ewald contribution        =    -456.80278467 Ry
     one-center paw contrib.   =   -1204.88910977 Ry
      -> PAW hartree energy AE =       0.63125571 Ry
      -> PAW hartree energy PS =      -0.63004591 Ry
      -> PAW xc energy AE      =     -31.60081926 Ry
      -> PAW xc energy PS      =       1.21191964 Ry
      -> total E_H with PAW    =     286.41347611 Ry
      -> total E_XC with PAW   =    -139.17859039 Ry

     convergence has been achieved in  13 iterations

     Forces acting on atoms (cartesian axes, Ry/au):

     atom    1 type  2   force =    -0.00000016    0.00000016   -0.00000016
     atom    2 type  2   force =     0.00000016    0.00000016   -0.00000016
     atom    3 type  2   force =    -0.00000016   -0.00000016    0.00000016
     atom    4 type  2   force =     0.00000016   -0.00000016    0.00000016
     atom    5 type  2   force =     0.00000016    0.00000016    0.00000016
     atom    6 type  2   force =    -0.00000016    0.00000016    0.00000016
     atom    7 type  2   force =     0.00000016   -0.00000016   -0.00000016
     atom    8 type  2   force =    -0.00000016   -0.00000016   -0.00000016
     atom    9 type  1   force =     0.00000000    0.00000000   -0.00366666
     atom   10 type  1   force =     0.00000000    0.00366571    0.00000000
     atom   11 type  1   force =     0.00366571    0.00000000    0.00000000
     atom   12 type  1   force =     0.00000000    0.00000000    0.00366666
     atom   13 type  1   force =     0.00000000   -0.00366666    0.00000000
     atom   14 type  1   force =    -0.00366571   -0.00000000    0.00000000
     atom   15 type  1   force =     0.00000000    0.00000000   -0.00366571
     atom   16 type  1   force =     0.00000000    0.00366666    0.00000000
     atom   17 type  1   force =     0.00366571    0.00000000    0.00000000
     atom   18 type  1   force =     0.00000000    0.00000000    0.00366571
     atom   19 type  1   force =    -0.00000000   -0.00366571    0.00000000
     atom   20 type  1   force =    -0.00366571    0.00000000    0.00000000
     atom   21 type  1   force =     0.00000000    0.00000000   -0.00366571
     atom   22 type  1   force =     0.00000000    0.00366571    0.00000000
     atom   23 type  1   force =     0.00366666    0.00000000    0.00000000
     atom   24 type  1   force =     0.00000000    0.00000000    0.00366571
     atom   25 type  1   force =    -0.00000000   -0.00366569    0.00000000
     atom   26 type  1   force =    -0.00366666    0.00000000    0.00000000
     atom   27 type  1   force =     0.00000000    0.00000000   -0.00366569
     atom   28 type  1   force =     0.00000000    0.00366569    0.00000000
     atom   29 type  1   force =     0.00366569    0.00000000    0.00000000
     atom   30 type  1   force =     0.00000000    0.00000000    0.00366569
     atom   31 type  1   force =     0.00000000   -0.00366571    0.00000000
     atom   32 type  1   force =    -0.00366569   -0.00000000    0.00000000
     atom   33 type  3   force =     0.00000000    0.00000000    0.00000000
     atom   34 type  3   force =     0.00000000    0.00000000    0.00000000
     atom   35 type  3   force =     0.00000000    0.00000000    0.00000000
     atom   36 type  3   force =     0.00000000    0.00000000    0.00000000
     The non-local contrib.  to forces
     atom    1 type  2   force =     0.00000033   -0.00000033    0.00000033
     atom    2 type  2   force =    -0.00000033   -0.00000033    0.00000033
     atom    3 type  2   force =     0.00000033    0.00000033   -0.00000033
     atom    4 type  2   force =    -0.00000033    0.00000033   -0.00000033
     atom    5 type  2   force =    -0.00000033   -0.00000033   -0.00000033
     atom    6 type  2   force =     0.00000033   -0.00000033   -0.00000033
     atom    7 type  2   force =    -0.00000033    0.00000033    0.00000033
     atom    8 type  2   force =     0.00000033    0.00000033    0.00000033
     atom    9 type  1   force =     0.00000000   -0.00000000    0.02243454
     atom   10 type  1   force =    -0.00000000   -0.02243454   -0.00000000
     atom   11 type  1   force =    -0.02243454    0.00000000    0.00000000
     atom   12 type  1   force =     0.00000000    0.00000000   -0.02243454
     atom   13 type  1   force =    -0.00000000    0.02243454    0.00000000
     atom   14 type  1   force =     0.02243454    0.00000000   -0.00000000
     atom   15 type  1   force =    -0.00000000    0.00000000    0.02243454
     atom   16 type  1   force =     0.00000000   -0.02243454    0.00000000
     atom   17 type  1   force =    -0.02243454    0.00000000    0.00000000
     atom   18 type  1   force =     0.00000000    0.00000000   -0.02243454
     atom   19 type  1   force =     0.00000000    0.02243454    0.00000000
     atom   20 type  1   force =     0.02243454    0.00000000    0.00000000
     atom   21 type  1   force =     0.00000000    0.00000000    0.02243454
     atom   22 type  1   force =    -0.00000000   -0.02243454   -0.00000000
     atom   23 type  1   force =    -0.02243454    0.00000000    0.00000000
     atom   24 type  1   force =     0.00000000    0.00000000   -0.02243454
     atom   25 type  1   force =     0.00000000    0.02243457    0.00000000
     atom   26 type  1   force =     0.02243454   -0.00000000    0.00000000
     atom   27 type  1   force =    -0.00000000    0.00000000    0.02243457
     atom   28 type  1   force =    -0.00000000   -0.02243457   -0.00000000
     atom   29 type  1   force =    -0.02243457   -0.00000000    0.00000000
     atom   30 type  1   force =     0.00000000    0.00000000   -0.02243457
     atom   31 type  1   force =     0.00000000    0.02243454    0.00000000
     atom   32 type  1   force =     0.02243457    0.00000000    0.00000000
     atom   33 type  3   force =     0.00000000    0.00000000    0.00000000
     atom   34 type  3   force =     0.00000000    0.00000000    0.00000000
     atom   35 type  3   force =     0.00000000    0.00000000    0.00000000
     atom   36 type  3   force =     0.00000000    0.00000000    0.00000000
     The ionic contribution  to forces
     atom    1 type  2   force =    -0.00000000    0.00000000    0.00000000
     atom    2 type  2   force =     0.00000000    0.00000000   -0.00000000
     atom    3 type  2   force =    -0.00000000   -0.00000000    0.00000000
     atom    4 type  2   force =     0.00000000   -0.00000000   -0.00000000
     atom    5 type  2   force =     0.00000000    0.00000000    0.00000000
     atom    6 type  2   force =    -0.00000000    0.00000000   -0.00000000
     atom    7 type  2   force =     0.00000000   -0.00000000    0.00000000
     atom    8 type  2   force =    -0.00000000   -0.00000000   -0.00000000
     atom    9 type  1   force =    -0.00000000   -0.00000000   -2.45700671
     atom   10 type  1   force =     0.00000000    2.45700671    0.00000000
     atom   11 type  1   force =     2.45700671   -0.00000000    0.00000000
     atom   12 type  1   force =    -0.00000000   -0.00000000    2.45700671
     atom   13 type  1   force =    -0.00000000   -2.45700671   -0.00000000
     atom   14 type  1   force =    -2.45700671    0.00000000    0.00000000
     atom   15 type  1   force =    -0.00000000    0.00000000   -2.45700671
     atom   16 type  1   force =     0.00000000    2.45700671   -0.00000000
     atom   17 type  1   force =     2.45700671    0.00000000   -0.00000000
     atom   18 type  1   force =    -0.00000000    0.00000000    2.45700671
     atom   19 type  1   force =    -0.00000000   -2.45700671    0.00000000
     atom   20 type  1   force =    -2.45700671    0.00000000   -0.00000000
     atom   21 type  1   force =     0.00000000   -0.00000000   -2.45700671
     atom   22 type  1   force =     0.00000000    2.45700671   -0.00000000
     atom   23 type  1   force =     2.45700671   -0.00000000   -0.00000000
     atom   24 type  1   force =     0.00000000   -0.00000000    2.45700671
     atom   25 type  1   force =    -0.00000000   -2.45700671   -0.00000000
     atom   26 type  1   force =    -2.45700671    0.00000000   -0.00000000
     atom   27 type  1   force =    -0.00000000   -0.00000000   -2.45700671
     atom   28 type  1   force =     0.00000000    2.45700671    0.00000000
     atom   29 type  1   force =     2.45700671   -0.00000000    0.00000000
     atom   30 type  1   force =     0.00000000    0.00000000    2.45700671
     atom   31 type  1   force =    -0.00000000   -2.45700671   -0.00000000
     atom   32 type  1   force =    -2.45700671   -0.00000000   -0.00000000
     atom   33 type  3   force =    -0.00000000   -0.00000000   -0.00000000
     atom   34 type  3   force =    -0.00000000    0.00000000    0.00000000
     atom   35 type  3   force =     0.00000000   -0.00000000    0.00000000
     atom   36 type  3   force =     0.00000000    0.00000000   -0.00000000
     The local contribution  to forces
     atom    1 type  2   force =     0.00000060   -0.00000060    0.00000060
     atom    2 type  2   force =    -0.00000060   -0.00000060    0.00000060
     atom    3 type  2   force =     0.00000060    0.00000060   -0.00000060
     atom    4 type  2   force =    -0.00000060    0.00000060   -0.00000060
     atom    5 type  2   force =    -0.00000060   -0.00000060   -0.00000060
     atom    6 type  2   force =     0.00000060   -0.00000060   -0.00000060
     atom    7 type  2   force =    -0.00000060    0.00000060    0.00000060
     atom    8 type  2   force =     0.00000060    0.00000060    0.00000060
     atom    9 type  1   force =     0.00000000    0.00000000    2.43090359
     atom   10 type  1   force =    -0.00000000   -2.43090957   -0.00000000
     atom   11 type  1   force =    -2.43090957   -0.00000000   -0.00000000
     atom   12 type  1   force =     0.00000000    0.00000000   -2.43090359
     atom   13 type  1   force =     0.00000000    2.43090359    0.00000000
     atom   14 type  1   force =     2.43090957    0.00000000    0.00000000
     atom   15 type  1   force =     0.00000000    0.00000000    2.43090957
     atom   16 type  1   force =    -0.00000000   -2.43090359    0.00000000
     atom   17 type  1   force =    -2.43090957    0.00000000    0.00000000
     atom   18 type  1   force =     0.00000000   -0.00000000   -2.43090957
     atom   19 type  1   force =     0.00000000    2.43090957    0.00000000
     atom   20 type  1   force =     2.43090957   -0.00000000    0.00000000
     atom   21 type  1   force =     0.00000000    0.00000000    2.43090957
     atom   22 type  1   force =    -0.00000000   -2.43090957    0.00000000
     atom   23 type  1   force =    -2.43090359    0.00000000    0.00000000
     atom   24 type  1   force =    -0.00000000    0.00000000   -2.43090957
     atom   25 type  1   force =     0.00000000    2.43090961    0.00000000
     atom   26 type  1   force =     2.43090359   -0.00000000    0.00000000
     atom   27 type  1   force =     0.00000000    0.00000000    2.43090961
     atom   28 type  1   force =    -0.00000000   -2.43090961    0.00000000
     atom   29 type  1   force =    -2.43090961   -0.00000000    0.00000000
     atom   30 type  1   force =     0.00000000    0.00000000   -2.43090961
     atom   31 type  1   force =     0.00000000    2.43090957    0.00000000
     atom   32 type  1   force =     2.43090961    0.00000000    0.00000000
     atom   33 type  3   force =     0.00000000    0.00000000    0.00000000
     atom   34 type  3   force =     0.00000000    0.00000000    0.00000000
     atom   35 type  3   force =     0.00000000    0.00000000    0.00000000
     atom   36 type  3   force =     0.00000000    0.00000000    0.00000000
     The core correction contribution to forces
     atom    1 type  2   force =    -0.00000004    0.00000004   -0.00000004
     atom    2 type  2   force =     0.00000004    0.00000004   -0.00000004
     atom    3 type  2   force =    -0.00000004   -0.00000004    0.00000004
     atom    4 type  2   force =     0.00000004   -0.00000004    0.00000004
     atom    5 type  2   force =     0.00000004    0.00000004    0.00000004
     atom    6 type  2   force =    -0.00000004    0.00000004    0.00000004
     atom    7 type  2   force =     0.00000004   -0.00000004   -0.00000004
     atom    8 type  2   force =    -0.00000004   -0.00000004   -0.00000004
     atom    9 type  1   force =     0.00000000    0.00000000    0.00000000
     atom   10 type  1   force =     0.00000000    0.00000000    0.00000000
     atom   11 type  1   force =     0.00000000    0.00000000    0.00000000
     atom   12 type  1   force =     0.00000000    0.00000000    0.00000000
     atom   13 type  1   force =     0.00000000    0.00000000    0.00000000
     atom   14 type  1   force =     0.00000000    0.00000000    0.00000000
     atom   15 type  1   force =     0.00000000    0.00000000    0.00000000
     atom   16 type  1   force =     0.00000000    0.00000000    0.00000000
     atom   17 type  1   force =     0.00000000    0.00000000    0.00000000
     atom   18 type  1   force =     0.00000000    0.00000000    0.00000000
     atom   19 type  1   force =     0.00000000    0.00000000    0.00000000
     atom   20 type  1   force =     0.00000000    0.00000000    0.00000000
     atom   21 type  1   force =     0.00000000    0.00000000    0.00000000
     atom   22 type  1   force =     0.00000000    0.00000000    0.00000000
     atom   23 type  1   force =     0.00000000    0.00000000    0.00000000
     atom   24 type  1   force =     0.00000000    0.00000000    0.00000000
     atom   25 type  1   force =     0.00000000    0.00000000    0.00000000
     atom   26 type  1   force =     0.00000000    0.00000000    0.00000000
     atom   27 type  1   force =     0.00000000    0.00000000    0.00000000
     atom   28 type  1   force =     0.00000000    0.00000000    0.00000000
     atom   29 type  1   force =     0.00000000    0.00000000    0.00000000
     atom   30 type  1   force =     0.00000000    0.00000000    0.00000000
     atom   31 type  1   force =     0.00000000    0.00000000    0.00000000
     atom   32 type  1   force =     0.00000000    0.00000000    0.00000000
     atom   33 type  3   force =     0.00000000    0.00000000    0.00000000
     atom   34 type  3   force =     0.00000000    0.00000000    0.00000000
     atom   35 type  3   force =     0.00000000    0.00000000    0.00000000
     atom   36 type  3   force =     0.00000000    0.00000000    0.00000000
     The Hubbard contrib.    to forces
     atom    1 type  2   force =     0.00000000    0.00000000    0.00000000
     atom    2 type  2   force =     0.00000000    0.00000000    0.00000000
     atom    3 type  2   force =     0.00000000    0.00000000    0.00000000
     atom    4 type  2   force =     0.00000000    0.00000000    0.00000000
     atom    5 type  2   force =     0.00000000    0.00000000    0.00000000
     atom    6 type  2   force =     0.00000000    0.00000000    0.00000000
     atom    7 type  2   force =     0.00000000    0.00000000    0.00000000
     atom    8 type  2   force =     0.00000000    0.00000000    0.00000000
     atom    9 type  1   force =     0.00000000    0.00000000    0.00000000
     atom   10 type  1   force =     0.00000000    0.00000000    0.00000000
     atom   11 type  1   force =     0.00000000    0.00000000    0.00000000
     atom   12 type  1   force =     0.00000000    0.00000000    0.00000000
     atom   13 type  1   force =     0.00000000    0.00000000    0.00000000
     atom   14 type  1   force =     0.00000000    0.00000000    0.00000000
     atom   15 type  1   force =     0.00000000    0.00000000    0.00000000
     atom   16 type  1   force =     0.00000000    0.00000000    0.00000000
     atom   17 type  1   force =     0.00000000    0.00000000    0.00000000
     atom   18 type  1   force =     0.00000000    0.00000000    0.00000000
     atom   19 type  1   force =     0.00000000    0.00000000    0.00000000
     atom   20 type  1   force =     0.00000000    0.00000000    0.00000000
     atom   21 type  1   force =     0.00000000    0.00000000    0.00000000
     atom   22 type  1   force =     0.00000000    0.00000000    0.00000000
     atom   23 type  1   force =     0.00000000    0.00000000    0.00000000
     atom   24 type  1   force =     0.00000000    0.00000000    0.00000000
     atom   25 type  1   force =     0.00000000    0.00000000    0.00000000
     atom   26 type  1   force =     0.00000000    0.00000000    0.00000000
     atom   27 type  1   force =     0.00000000    0.00000000    0.00000000
     atom   28 type  1   force =     0.00000000    0.00000000    0.00000000
     atom   29 type  1   force =     0.00000000    0.00000000    0.00000000
     atom   30 type  1   force =     0.00000000    0.00000000    0.00000000
     atom   31 type  1   force =     0.00000000    0.00000000    0.00000000
     atom   32 type  1   force =     0.00000000    0.00000000    0.00000000
     atom   33 type  3   force =     0.00000000    0.00000000    0.00000000
     atom   34 type  3   force =     0.00000000    0.00000000    0.00000000
     atom   35 type  3   force =     0.00000000    0.00000000    0.00000000
     atom   36 type  3   force =     0.00000000    0.00000000    0.00000000
     The SCF correction term to forces
     atom    1 type  2   force =    -0.00000106    0.00000106   -0.00000106
     atom    2 type  2   force =     0.00000106    0.00000106   -0.00000106
     atom    3 type  2   force =    -0.00000106   -0.00000106    0.00000106
     atom    4 type  2   force =     0.00000106   -0.00000106    0.00000106
     atom    5 type  2   force =     0.00000106    0.00000106    0.00000106
     atom    6 type  2   force =    -0.00000106    0.00000106    0.00000106
     atom    7 type  2   force =     0.00000106   -0.00000106   -0.00000106
     atom    8 type  2   force =    -0.00000106   -0.00000106   -0.00000106
     atom    9 type  1   force =    -0.00000000   -0.00000000    0.00000192
     atom   10 type  1   force =    -0.00000000    0.00000311    0.00000000
     atom   11 type  1   force =     0.00000311    0.00000000    0.00000000
     atom   12 type  1   force =    -0.00000000    0.00000000   -0.00000192
     atom   13 type  1   force =     0.00000000    0.00000192    0.00000000
     atom   14 type  1   force =    -0.00000311   -0.00000000    0.00000000
     atom   15 type  1   force =    -0.00000000    0.00000000   -0.00000311
     atom   16 type  1   force =    -0.00000000   -0.00000192    0.00000000
     atom   17 type  1   force =     0.00000311   -0.00000000    0.00000000
     atom   18 type  1   force =    -0.00000000    0.00000000    0.00000311
     atom   19 type  1   force =    -0.00000000   -0.00000311    0.00000000
     atom   20 type  1   force =    -0.00000311   -0.00000000    0.00000000
     atom   21 type  1   force =     0.00000000   -0.00000000   -0.00000311
     atom   22 type  1   force =     0.00000000    0.00000311    0.00000000
     atom   23 type  1   force =    -0.00000192   -0.00000000    0.00000000
     atom   24 type  1   force =     0.00000000    0.00000000    0.00000311
     atom   25 type  1   force =    -0.00000000   -0.00000315    0.00000000
     atom   26 type  1   force =     0.00000192   -0.00000000    0.00000000
     atom   27 type  1   force =     0.00000000    0.00000000   -0.00000315
     atom   28 type  1   force =     0.00000000    0.00000315    0.00000000
     atom   29 type  1   force =     0.00000315    0.00000000    0.00000000
     atom   30 type  1   force =    -0.00000000    0.00000000    0.00000315
     atom   31 type  1   force =    -0.00000000   -0.00000311    0.00000000
     atom   32 type  1   force =    -0.00000315    0.00000000    0.00000000
     atom   33 type  3   force =     0.00000000    0.00000000   -0.00000000
     atom   34 type  3   force =    -0.00000000   -0.00000000   -0.00000000
     atom   35 type  3   force =    -0.00000000    0.00000000   -0.00000000
     atom   36 type  3   force =    -0.00000000    0.00000000   -0.00000000

     Total force =     0.017959     Total SCF correction =     0.000015


     Computing stress (Cartesian axis) and pressure

          total   stress  (Ry/bohr**3)                   (kbar)     P=       -2.58
  -0.00001753   0.00000000   0.00000000           -2.58        0.00        0.00
   0.00000000  -0.00001753   0.00000000            0.00       -2.58        0.00
   0.00000000   0.00000000  -0.00001753            0.00        0.00       -2.58

     kinetic stress (kbar)   6460.88      0.00      0.00
                                0.00   6460.88      0.00
                                0.00      0.00   6460.88

     local   stress (kbar)  -4065.02      0.00      0.00
                                0.00  -4065.02      0.00
                                0.00      0.00  -4065.02

     nonloc. stress (kbar)   4404.35      0.00      0.00
                                0.00   4404.35      0.00
                                0.00      0.00   4404.35

     hartree stress (kbar)   7254.96      0.00     -0.00
                                0.00   7254.96     -0.00
                               -0.00     -0.00   7254.96

     exc-cor stress (kbar)  -2042.30     -0.00      0.00
                               -0.00  -2042.30      0.00
                                0.00      0.00  -2042.30

     corecor stress (kbar)   -444.41     -0.00     -0.00
                               -0.00   -444.41      0.00
                               -0.00      0.00   -444.41

     ewald   stress (kbar) -11571.03      0.00      0.00
                                0.00 -11571.03      0.00
                                0.00      0.00 -11571.03

     hubbard stress (kbar)      0.00      0.00      0.00
                                0.00      0.00      0.00
                                0.00      0.00      0.00

     DFT-D   stress (kbar)      0.00      0.00      0.00
                                0.00      0.00      0.00
                                0.00      0.00      0.00

     XDM     stress (kbar)      0.00      0.00      0.00
                                0.00      0.00      0.00
                                0.00      0.00      0.00

     dft-nl  stress (kbar)      0.00      0.00      0.00
                                0.00      0.00      0.00
                                0.00      0.00      0.00

     TS-vdW  stress (kbar)      0.00      0.00      0.00
                                0.00      0.00      0.00
                                0.00      0.00      0.00

     MDB     stress (kbar)      0.00      0.00      0.00
                                0.00      0.00      0.00
                                0.00      0.00      0.00

     3D-RISM stress (kbar)      0.00      0.00      0.00
                                0.00      0.00      0.00
                                0.00      0.00      0.00


     Writing all to output data dir ./out/ru-kp-7.save/

     init_run     :      2.44s CPU      2.96s WALL (       1 calls)
     electrons    :     40.99s CPU     50.53s WALL (       1 calls)
     forces       :      0.90s CPU      1.06s WALL (       1 calls)
     stress       :      4.88s CPU      5.17s WALL (       1 calls)

     Called by init_run:
     wfcinit      :      1.15s CPU      1.32s WALL (       1 calls)
     wfcinit:atom :      0.02s CPU      0.02s WALL (      10 calls)
     wfcinit:wfcr :      1.06s CPU      1.23s WALL (      10 calls)
     potinit      :      0.47s CPU      0.64s WALL (       1 calls)
     hinit0       :      0.37s CPU      0.42s WALL (       1 calls)

     Called by electrons:
     c_bands      :     32.28s CPU     38.28s WALL (      13 calls)
     sum_band     :      5.05s CPU      6.23s WALL (      13 calls)
     v_of_rho     :      1.01s CPU      1.22s WALL (      14 calls)
     v_h          :      0.10s CPU      0.12s WALL (      14 calls)
     v_xc         :      1.04s CPU      1.25s WALL (      16 calls)
     newd         :      1.44s CPU      1.88s WALL (      14 calls)
     PAW_pot      :      1.17s CPU      2.84s WALL (      14 calls)
     mix_rho      :      0.13s CPU      0.17s WALL (      13 calls)

     Called by c_bands:
     init_us_2    :      0.46s CPU      0.51s WALL (     290 calls)
     init_us_2:cp :      0.46s CPU      0.51s WALL (     290 calls)
     cegterg      :     30.51s CPU     34.29s WALL (     130 calls)

     Called by sum_band:
     sum_band:wei :      0.00s CPU      0.00s WALL (      13 calls)
     sum_band:loo :      3.33s CPU      3.83s WALL (      13 calls)
     sum_band:buf :      0.07s CPU      0.07s WALL (     130 calls)
     sum_band:ini :      0.18s CPU      0.19s WALL (     130 calls)
     sum_band:cal :      0.55s CPU      0.67s WALL (     130 calls)
     sum_band:bec :      0.01s CPU      0.02s WALL (     130 calls)
     addusdens    :      1.56s CPU      2.15s WALL (      13 calls)
                                        0.00s GPU  (      13 calls)
     addusd:skk   :      0.10s CPU      0.10s WALL (      39 calls)
                                        0.00s GPU  (      39 calls)

     Called by *egterg:
     cdiaghg      :      4.40s CPU      4.67s WALL (    1027 calls)
     cegterg:over :      1.57s CPU      1.87s WALL (     897 calls)
     cegterg:upda :      1.11s CPU      1.14s WALL (     897 calls)
     cegterg:last :      1.73s CPU      1.75s WALL (     367 calls)
     h_psi        :     20.20s CPU     23.33s WALL (    1037 calls)
     s_psi        :      1.53s CPU      1.56s WALL (    1037 calls)
     g_psi        :      0.05s CPU      0.05s WALL (     897 calls)

     Called by h_psi:
     h_psi:calbec :      2.76s CPU      3.35s WALL (    1037 calls)
     vloc_psi     :     15.50s CPU     17.96s WALL (    1037 calls)
     add_vuspsi   :      1.77s CPU      1.85s WALL (    1037 calls)

     General routines
     calbec       :      3.50s CPU      4.26s WALL (    1217 calls)
     fft          :      0.80s CPU      1.09s WALL (     205 calls)
     ffts         :      0.16s CPU      0.17s WALL (      27 calls)
     fftw         :     14.32s CPU     16.61s WALL (   60998 calls)
     interpolate  :      0.20s CPU      0.22s WALL (      14 calls)

     Parallel routines

     PAW routines
     PAW_pot      :      1.17s CPU      2.84s WALL (      14 calls)
     PAW_symme    :      0.01s CPU      0.02s WALL (      27 calls)

     PWSCF        :     49.94s CPU   1m 1.59s WALL


   This run was terminated on:  22:41:11  13Jun2025            

=------------------------------------------------------------------------------=
   JOB DONE.
=------------------------------------------------------------------------------=
