
     Program PWSCF v.7.2 starts on 13Jun2025 at 22:32: 3 

     This program is part of the open-source Quantum ESPRESSO suite
     for quantum simulation of materials; please cite
         "P. Giannozzi et al., J. Phys.:Condens. Matter 21 395502 (2009);
         "P. Giannozzi et al., J. Phys.:Condens. Matter 29 465901 (2017);
         "P. Giannozzi et al., J. Chem. Phys. 152 154105 (2020);
          URL http://www.quantum-espresso.org", 
     in publications or presentations arising from this work. More details at
     http://www.quantum-espresso.org/quote

     Parallel version (MPI & OpenMP), running on      64 processor cores
     Number of MPI processes:                64
     Threads/MPI process:                     1

     MPI processes distributed on     1 nodes
     235526 MiB available memory on the printing compute node when the environment starts

     Reading input from fe_kp_6.in

     Current dimensions of program PWSCF are:
     Max number of different atomic species (ntypx) = 10
     Max number of k-points (npk) =  40000
     Max angular momentum in pseudopotentials (lmaxx) =  4
     file Fe.pbesol-spn-kjpaw_psl.0.2.1.UPF: wavefunction(s)  3D renormalized
     file Mg.pbesol-n-kjpaw_psl.0.3.0.UPF: wavefunction(s)  3S renormalized
     Found identity + (  0.0000  0.5000 -0.5000) symmetry
     This is a supercell, fractional translations are disabled
     Message from routine setup:
     using ibrav=0 with symmetry is DISCOURAGED, use correct ibrav instead

     K-points division:     npool     =       2
     R & G space division:  proc/nbgrp/npool/nimage =      32
     Subspace diagonalization in iterative solution of the eigenvalue problem:
     a serial algorithm will be used


     Parallelization info
     --------------------
     sticks:   dense  smooth     PW     G-vecs:    dense   smooth      PW
     Min         387     129     35                32439     6247     890
     Max         388     130     37                32443     6250     893
     Sum       12393    4149   1125              1038085   199949   28545

     Using Slab Decomposition



     bravais-lattice index     =            0
     lattice parameter (alat)  =      12.0093  a.u.
     unit-cell volume          =    1732.0312 (a.u.)^3
     number of atoms/cell      =           36
     number of atomic types    =            3
     number of electrons       =       104.00
     number of Kohn-Sham states=           62
     kinetic-energy cutoff     =      90.0000  Ry
     charge density cutoff     =    1080.0000  Ry
     scf convergence threshold =      7.2E-09
     mixing beta               =       0.4000
     number of iterations used =            8  plain     mixing
     Exchange-correlation= SLA  PW   PSX  PSC
                           (   1   4  10   8   0   0   0)

     celldm(1)=  12.009324  celldm(2)=   0.000000  celldm(3)=   0.000000
     celldm(4)=   0.000000  celldm(5)=   0.000000  celldm(6)=   0.000000

     crystal axes: (cart. coord. in units of alat)
               a(1) = (   1.000000   0.000000   0.000000 )  
               a(2) = (   0.000000   1.000000   0.000000 )  
               a(3) = (   0.000000   0.000000   1.000000 )  

     reciprocal axes: (cart. coord. in units 2 pi/alat)
               b(1) = (  1.000000  0.000000  0.000000 )  
               b(2) = (  0.000000  1.000000  0.000000 )  
               b(3) = (  0.000000  0.000000  1.000000 )  


     PseudoPot. # 1 for Fe read from file:
     ./pseudo/Fe.pbesol-spn-kjpaw_psl.0.2.1.UPF
     MD5 check sum: 4d7ec5aa2156491519a4322664fbbf52
     Pseudo is Projector augmented-wave + core cor, Zval = 16.0
     Generated using "atomic" code by A. Dal Corso  v.6.0 svn rev. 13079
     Shape of augmentation charge: PSQ
     Using radial grid of 1191 points,  6 beta functions with: 
                l(1) =   0
                l(2) =   0
                l(3) =   1
                l(4) =   1
                l(5) =   2
                l(6) =   2
     Q(r) pseudized with 0 coefficients 


     PseudoPot. # 2 for H  read from file:
     ./pseudo/H.pbesol-rrkjus_psl.1.0.0.UPF
     MD5 check sum: 0324ed591cc0147dc3d88cad0d33f665
     Pseudo is Ultrasoft, Zval =  1.0
     Generated using "atomic" code by A. Dal Corso  v.6.0 svn rev. 13079
     Using radial grid of  929 points,  2 beta functions with: 
                l(1) =   0
                l(2) =   0
     Q(r) pseudized with 0 coefficients 


     PseudoPot. # 3 for Mg read from file:
     ./pseudo/Mg.pbesol-n-kjpaw_psl.0.3.0.UPF
     MD5 check sum: a6c8d2ff726a5f7005dea00130d82930
     Pseudo is Projector augmented-wave + core cor, Zval =  2.0
     Generated using "atomic" code by A. Dal Corso  v.6.1 svn rev. 13369
     Shape of augmentation charge: PSQ
     Using radial grid of 1129 points,  4 beta functions with: 
                l(1) =   0
                l(2) =   0
                l(3) =   1
                l(4) =   1
     Q(r) pseudized with 0 coefficients 


     atomic species   valence    mass     pseudopotential
        Fe            16.00    55.84500     Fe( 1.00)
        H              1.00     1.00794     H ( 1.00)
        Mg             2.00    24.30500     Mg( 1.00)

     48 Sym. Ops., with inversion, found


                                    s                        frac. trans.

      isym =  1     identity                                     

 cryst.   s( 1) = (     1          0          0      )
                  (     0          1          0      )
                  (     0          0          1      )

 cart.    s( 1) = (  1.0000000  0.0000000  0.0000000 )
                  (  0.0000000  1.0000000  0.0000000 )
                  (  0.0000000  0.0000000  1.0000000 )


      isym =  2     180 deg rotation - cart. axis [0,0,1]        

 cryst.   s( 2) = (    -1          0          0      )
                  (     0         -1          0      )
                  (     0          0          1      )

 cart.    s( 2) = ( -1.0000000  0.0000000  0.0000000 )
                  (  0.0000000 -1.0000000  0.0000000 )
                  (  0.0000000  0.0000000  1.0000000 )


      isym =  3     180 deg rotation - cart. axis [0,1,0]        

 cryst.   s( 3) = (    -1          0          0      )
                  (     0          1          0      )
                  (     0          0         -1      )

 cart.    s( 3) = ( -1.0000000  0.0000000  0.0000000 )
                  (  0.0000000  1.0000000  0.0000000 )
                  (  0.0000000  0.0000000 -1.0000000 )


      isym =  4     180 deg rotation - cart. axis [1,0,0]        

 cryst.   s( 4) = (     1          0          0      )
                  (     0         -1          0      )
                  (     0          0         -1      )

 cart.    s( 4) = (  1.0000000  0.0000000  0.0000000 )
                  (  0.0000000 -1.0000000  0.0000000 )
                  (  0.0000000  0.0000000 -1.0000000 )


      isym =  5     180 deg rotation - cart. axis [1,1,0]        

 cryst.   s( 5) = (     0          1          0      )
                  (     1          0          0      )
                  (     0          0         -1      )

 cart.    s( 5) = (  0.0000000  1.0000000  0.0000000 )
                  (  1.0000000  0.0000000  0.0000000 )
                  (  0.0000000  0.0000000 -1.0000000 )


      isym =  6     180 deg rotation - cart. axis [1,-1,0]       

 cryst.   s( 6) = (     0         -1          0      )
                  (    -1          0          0      )
                  (     0          0         -1      )

 cart.    s( 6) = (  0.0000000 -1.0000000  0.0000000 )
                  ( -1.0000000  0.0000000  0.0000000 )
                  (  0.0000000  0.0000000 -1.0000000 )


      isym =  7      90 deg rotation - cart. axis [0,0,-1]       

 cryst.   s( 7) = (     0         -1          0      )
                  (     1          0          0      )
                  (     0          0          1      )

 cart.    s( 7) = (  0.0000000  1.0000000  0.0000000 )
                  ( -1.0000000  0.0000000  0.0000000 )
                  (  0.0000000  0.0000000  1.0000000 )


      isym =  8      90 deg rotation - cart. axis [0,0,1]        

 cryst.   s( 8) = (     0          1          0      )
                  (    -1          0          0      )
                  (     0          0          1      )

 cart.    s( 8) = (  0.0000000 -1.0000000  0.0000000 )
                  (  1.0000000  0.0000000  0.0000000 )
                  (  0.0000000  0.0000000  1.0000000 )


      isym =  9     180 deg rotation - cart. axis [1,0,1]        

 cryst.   s( 9) = (     0          0          1      )
                  (     0         -1          0      )
                  (     1          0          0      )

 cart.    s( 9) = (  0.0000000  0.0000000  1.0000000 )
                  (  0.0000000 -1.0000000  0.0000000 )
                  (  1.0000000  0.0000000  0.0000000 )


      isym = 10     180 deg rotation - cart. axis [-1,0,1]       

 cryst.   s(10) = (     0          0         -1      )
                  (     0         -1          0      )
                  (    -1          0          0      )

 cart.    s(10) = (  0.0000000  0.0000000 -1.0000000 )
                  (  0.0000000 -1.0000000  0.0000000 )
                  ( -1.0000000  0.0000000  0.0000000 )


      isym = 11      90 deg rotation - cart. axis [0,1,0]        

 cryst.   s(11) = (     0          0         -1      )
                  (     0          1          0      )
                  (     1          0          0      )

 cart.    s(11) = (  0.0000000  0.0000000  1.0000000 )
                  (  0.0000000  1.0000000  0.0000000 )
                  ( -1.0000000  0.0000000  0.0000000 )


      isym = 12      90 deg rotation - cart. axis [0,-1,0]       

 cryst.   s(12) = (     0          0          1      )
                  (     0          1          0      )
                  (    -1          0          0      )

 cart.    s(12) = (  0.0000000  0.0000000 -1.0000000 )
                  (  0.0000000  1.0000000  0.0000000 )
                  (  1.0000000  0.0000000  0.0000000 )


      isym = 13     180 deg rotation - cart. axis [0,1,1]        

 cryst.   s(13) = (    -1          0          0      )
                  (     0          0          1      )
                  (     0          1          0      )

 cart.    s(13) = ( -1.0000000  0.0000000  0.0000000 )
                  (  0.0000000  0.0000000  1.0000000 )
                  (  0.0000000  1.0000000  0.0000000 )


      isym = 14     180 deg rotation - cart. axis [0,1,-1]       

 cryst.   s(14) = (    -1          0          0      )
                  (     0          0         -1      )
                  (     0         -1          0      )

 cart.    s(14) = ( -1.0000000  0.0000000  0.0000000 )
                  (  0.0000000  0.0000000 -1.0000000 )
                  (  0.0000000 -1.0000000  0.0000000 )


      isym = 15      90 deg rotation - cart. axis [-1,0,0]       

 cryst.   s(15) = (     1          0          0      )
                  (     0          0         -1      )
                  (     0          1          0      )

 cart.    s(15) = (  1.0000000  0.0000000  0.0000000 )
                  (  0.0000000  0.0000000  1.0000000 )
                  (  0.0000000 -1.0000000  0.0000000 )


      isym = 16      90 deg rotation - cart. axis [1,0,0]        

 cryst.   s(16) = (     1          0          0      )
                  (     0          0          1      )
                  (     0         -1          0      )

 cart.    s(16) = (  1.0000000  0.0000000  0.0000000 )
                  (  0.0000000  0.0000000 -1.0000000 )
                  (  0.0000000  1.0000000  0.0000000 )


      isym = 17     120 deg rotation - cart. axis [-1,-1,-1]     

 cryst.   s(17) = (     0          0          1      )
                  (     1          0          0      )
                  (     0          1          0      )

 cart.    s(17) = (  0.0000000  1.0000000  0.0000000 )
                  (  0.0000000  0.0000000  1.0000000 )
                  (  1.0000000  0.0000000  0.0000000 )


      isym = 18     120 deg rotation - cart. axis [-1,1,1]       

 cryst.   s(18) = (     0          0         -1      )
                  (    -1          0          0      )
                  (     0          1          0      )

 cart.    s(18) = (  0.0000000 -1.0000000  0.0000000 )
                  (  0.0000000  0.0000000  1.0000000 )
                  ( -1.0000000  0.0000000  0.0000000 )


      isym = 19     120 deg rotation - cart. axis [1,1,-1]       

 cryst.   s(19) = (     0          0         -1      )
                  (     1          0          0      )
                  (     0         -1          0      )

 cart.    s(19) = (  0.0000000  1.0000000  0.0000000 )
                  (  0.0000000  0.0000000 -1.0000000 )
                  ( -1.0000000  0.0000000  0.0000000 )


      isym = 20     120 deg rotation - cart. axis [1,-1,1]       

 cryst.   s(20) = (     0          0          1      )
                  (    -1          0          0      )
                  (     0         -1          0      )

 cart.    s(20) = (  0.0000000 -1.0000000  0.0000000 )
                  (  0.0000000  0.0000000 -1.0000000 )
                  (  1.0000000  0.0000000  0.0000000 )


      isym = 21     120 deg rotation - cart. axis [1,1,1]        

 cryst.   s(21) = (     0          1          0      )
                  (     0          0          1      )
                  (     1          0          0      )

 cart.    s(21) = (  0.0000000  0.0000000  1.0000000 )
                  (  1.0000000  0.0000000  0.0000000 )
                  (  0.0000000  1.0000000  0.0000000 )


      isym = 22     120 deg rotation - cart. axis [-1,1,-1]      

 cryst.   s(22) = (     0         -1          0      )
                  (     0          0         -1      )
                  (     1          0          0      )

 cart.    s(22) = (  0.0000000  0.0000000  1.0000000 )
                  ( -1.0000000  0.0000000  0.0000000 )
                  (  0.0000000 -1.0000000  0.0000000 )


      isym = 23     120 deg rotation - cart. axis [1,-1,-1]      

 cryst.   s(23) = (     0         -1          0      )
                  (     0          0          1      )
                  (    -1          0          0      )

 cart.    s(23) = (  0.0000000  0.0000000 -1.0000000 )
                  ( -1.0000000  0.0000000  0.0000000 )
                  (  0.0000000  1.0000000  0.0000000 )


      isym = 24     120 deg rotation - cart. axis [-1,-1,1]      

 cryst.   s(24) = (     0          1          0      )
                  (     0          0         -1      )
                  (    -1          0          0      )

 cart.    s(24) = (  0.0000000  0.0000000 -1.0000000 )
                  (  1.0000000  0.0000000  0.0000000 )
                  (  0.0000000 -1.0000000  0.0000000 )


      isym = 25     inversion                                    

 cryst.   s(25) = (    -1          0          0      )
                  (     0         -1          0      )
                  (     0          0         -1      )

 cart.    s(25) = ( -1.0000000  0.0000000  0.0000000 )
                  (  0.0000000 -1.0000000  0.0000000 )
                  (  0.0000000  0.0000000 -1.0000000 )


      isym = 26     inv. 180 deg rotation - cart. axis [0,0,1]   

 cryst.   s(26) = (     1          0          0      )
                  (     0          1          0      )
                  (     0          0         -1      )

 cart.    s(26) = (  1.0000000  0.0000000  0.0000000 )
                  (  0.0000000  1.0000000  0.0000000 )
                  (  0.0000000  0.0000000 -1.0000000 )


      isym = 27     inv. 180 deg rotation - cart. axis [0,1,0]   

 cryst.   s(27) = (     1          0          0      )
                  (     0         -1          0      )
                  (     0          0          1      )

 cart.    s(27) = (  1.0000000  0.0000000  0.0000000 )
                  (  0.0000000 -1.0000000  0.0000000 )
                  (  0.0000000  0.0000000  1.0000000 )


      isym = 28     inv. 180 deg rotation - cart. axis [1,0,0]   

 cryst.   s(28) = (    -1          0          0      )
                  (     0          1          0      )
                  (     0          0          1      )

 cart.    s(28) = ( -1.0000000  0.0000000  0.0000000 )
                  (  0.0000000  1.0000000  0.0000000 )
                  (  0.0000000  0.0000000  1.0000000 )


      isym = 29     inv. 180 deg rotation - cart. axis [1,1,0]   

 cryst.   s(29) = (     0         -1          0      )
                  (    -1          0          0      )
                  (     0          0          1      )

 cart.    s(29) = (  0.0000000 -1.0000000  0.0000000 )
                  ( -1.0000000  0.0000000  0.0000000 )
                  (  0.0000000  0.0000000  1.0000000 )


      isym = 30     inv. 180 deg rotation - cart. axis [1,-1,0]  

 cryst.   s(30) = (     0          1          0      )
                  (     1          0          0      )
                  (     0          0          1      )

 cart.    s(30) = (  0.0000000  1.0000000  0.0000000 )
                  (  1.0000000  0.0000000  0.0000000 )
                  (  0.0000000  0.0000000  1.0000000 )


      isym = 31     inv.  90 deg rotation - cart. axis [0,0,-1]  

 cryst.   s(31) = (     0          1          0      )
                  (    -1          0          0      )
                  (     0          0         -1      )

 cart.    s(31) = (  0.0000000 -1.0000000  0.0000000 )
                  (  1.0000000  0.0000000  0.0000000 )
                  (  0.0000000  0.0000000 -1.0000000 )


      isym = 32     inv.  90 deg rotation - cart. axis [0,0,1]   

 cryst.   s(32) = (     0         -1          0      )
                  (     1          0          0      )
                  (     0          0         -1      )

 cart.    s(32) = (  0.0000000  1.0000000  0.0000000 )
                  ( -1.0000000  0.0000000  0.0000000 )
                  (  0.0000000  0.0000000 -1.0000000 )


      isym = 33     inv. 180 deg rotation - cart. axis [1,0,1]   

 cryst.   s(33) = (     0          0         -1      )
                  (     0          1          0      )
                  (    -1          0          0      )

 cart.    s(33) = (  0.0000000  0.0000000 -1.0000000 )
                  (  0.0000000  1.0000000  0.0000000 )
                  ( -1.0000000  0.0000000  0.0000000 )


      isym = 34     inv. 180 deg rotation - cart. axis [-1,0,1]  

 cryst.   s(34) = (     0          0          1      )
                  (     0          1          0      )
                  (     1          0          0      )

 cart.    s(34) = (  0.0000000  0.0000000  1.0000000 )
                  (  0.0000000  1.0000000  0.0000000 )
                  (  1.0000000  0.0000000  0.0000000 )


      isym = 35     inv.  90 deg rotation - cart. axis [0,1,0]   

 cryst.   s(35) = (     0          0          1      )
                  (     0         -1          0      )
                  (    -1          0          0      )

 cart.    s(35) = (  0.0000000  0.0000000 -1.0000000 )
                  (  0.0000000 -1.0000000  0.0000000 )
                  (  1.0000000  0.0000000  0.0000000 )


      isym = 36     inv.  90 deg rotation - cart. axis [0,-1,0]  

 cryst.   s(36) = (     0          0         -1      )
                  (     0         -1          0      )
                  (     1          0          0      )

 cart.    s(36) = (  0.0000000  0.0000000  1.0000000 )
                  (  0.0000000 -1.0000000  0.0000000 )
                  ( -1.0000000  0.0000000  0.0000000 )


      isym = 37     inv. 180 deg rotation - cart. axis [0,1,1]   

 cryst.   s(37) = (     1          0          0      )
                  (     0          0         -1      )
                  (     0         -1          0      )

 cart.    s(37) = (  1.0000000  0.0000000  0.0000000 )
                  (  0.0000000  0.0000000 -1.0000000 )
                  (  0.0000000 -1.0000000  0.0000000 )


      isym = 38     inv. 180 deg rotation - cart. axis [0,1,-1]  

 cryst.   s(38) = (     1          0          0      )
                  (     0          0          1      )
                  (     0          1          0      )

 cart.    s(38) = (  1.0000000  0.0000000  0.0000000 )
                  (  0.0000000  0.0000000  1.0000000 )
                  (  0.0000000  1.0000000  0.0000000 )


      isym = 39     inv.  90 deg rotation - cart. axis [-1,0,0]  

 cryst.   s(39) = (    -1          0          0      )
                  (     0          0          1      )
                  (     0         -1          0      )

 cart.    s(39) = ( -1.0000000  0.0000000  0.0000000 )
                  (  0.0000000  0.0000000 -1.0000000 )
                  (  0.0000000  1.0000000  0.0000000 )


      isym = 40     inv.  90 deg rotation - cart. axis [1,0,0]   

 cryst.   s(40) = (    -1          0          0      )
                  (     0          0         -1      )
                  (     0          1          0      )

 cart.    s(40) = ( -1.0000000  0.0000000  0.0000000 )
                  (  0.0000000  0.0000000  1.0000000 )
                  (  0.0000000 -1.0000000  0.0000000 )


      isym = 41     inv. 120 deg rotation - cart. axis [-1,-1,-1]

 cryst.   s(41) = (     0          0         -1      )
                  (    -1          0          0      )
                  (     0         -1          0      )

 cart.    s(41) = (  0.0000000 -1.0000000  0.0000000 )
                  (  0.0000000  0.0000000 -1.0000000 )
                  ( -1.0000000  0.0000000  0.0000000 )


      isym = 42     inv. 120 deg rotation - cart. axis [-1,1,1]  

 cryst.   s(42) = (     0          0          1      )
                  (     1          0          0      )
                  (     0         -1          0      )

 cart.    s(42) = (  0.0000000  1.0000000  0.0000000 )
                  (  0.0000000  0.0000000 -1.0000000 )
                  (  1.0000000  0.0000000  0.0000000 )


      isym = 43     inv. 120 deg rotation - cart. axis [1,1,-1]  

 cryst.   s(43) = (     0          0          1      )
                  (    -1          0          0      )
                  (     0          1          0      )

 cart.    s(43) = (  0.0000000 -1.0000000  0.0000000 )
                  (  0.0000000  0.0000000  1.0000000 )
                  (  1.0000000  0.0000000  0.0000000 )


      isym = 44     inv. 120 deg rotation - cart. axis [1,-1,1]  

 cryst.   s(44) = (     0          0         -1      )
                  (     1          0          0      )
                  (     0          1          0      )

 cart.    s(44) = (  0.0000000  1.0000000  0.0000000 )
                  (  0.0000000  0.0000000  1.0000000 )
                  ( -1.0000000  0.0000000  0.0000000 )


      isym = 45     inv. 120 deg rotation - cart. axis [1,1,1]   

 cryst.   s(45) = (     0         -1          0      )
                  (     0          0         -1      )
                  (    -1          0          0      )

 cart.    s(45) = (  0.0000000  0.0000000 -1.0000000 )
                  ( -1.0000000  0.0000000  0.0000000 )
                  (  0.0000000 -1.0000000  0.0000000 )


      isym = 46     inv. 120 deg rotation - cart. axis [-1,1,-1] 

 cryst.   s(46) = (     0          1          0      )
                  (     0          0          1      )
                  (    -1          0          0      )

 cart.    s(46) = (  0.0000000  0.0000000 -1.0000000 )
                  (  1.0000000  0.0000000  0.0000000 )
                  (  0.0000000  1.0000000  0.0000000 )


      isym = 47     inv. 120 deg rotation - cart. axis [1,-1,-1] 

 cryst.   s(47) = (     0          1          0      )
                  (     0          0         -1      )
                  (     1          0          0      )

 cart.    s(47) = (  0.0000000  0.0000000  1.0000000 )
                  (  1.0000000  0.0000000  0.0000000 )
                  (  0.0000000 -1.0000000  0.0000000 )


      isym = 48     inv. 120 deg rotation - cart. axis [-1,-1,1] 

 cryst.   s(48) = (     0         -1          0      )
                  (     0          0          1      )
                  (     1          0          0      )

 cart.    s(48) = (  0.0000000  0.0000000  1.0000000 )
                  ( -1.0000000  0.0000000  0.0000000 )
                  (  0.0000000  1.0000000  0.0000000 )


   Cartesian axes

     site n.     atom                  positions (alat units)
         1           Mg  tau(   1) = (   0.7500000   0.7500000   0.2500000  )
         2           Mg  tau(   2) = (   0.7500000   0.7500000   0.7500000  )
         3           Mg  tau(   3) = (   0.7500000   0.2500000   0.7500000  )
         4           Mg  tau(   4) = (   0.7500000   0.2500000   0.2500000  )
         5           Mg  tau(   5) = (   0.2500000   0.7500000   0.7500000  )
         6           Mg  tau(   6) = (   0.2500000   0.7500000   0.2500000  )
         7           Mg  tau(   7) = (   0.2500000   0.2500000   0.2500000  )
         8           Mg  tau(   8) = (   0.2500000   0.2500000   0.7500000  )
         9           Fe  tau(   9) = (   0.0000000   0.0000000   0.0000000  )
        10           Fe  tau(  10) = (   0.0000000   0.5000000   0.5000000  )
        11           Fe  tau(  11) = (   0.5000000   0.0000000   0.5000000  )
        12           Fe  tau(  12) = (   0.5000000   0.5000000   0.0000000  )
        13           H   tau(  13) = (   0.0000000   0.7570260   0.0000000  )
        14           H   tau(  14) = (   0.5000000   0.0000000   0.7429740  )
        15           H   tau(  15) = (   0.5000000   0.0000000   0.2570260  )
        16           H   tau(  16) = (   0.5000000   0.7429740   0.0000000  )
        17           H   tau(  17) = (   0.7570260   0.0000000   0.0000000  )
        18           H   tau(  18) = (   0.2429740   0.0000000   0.0000000  )
        19           H   tau(  19) = (   0.0000000   0.2570260   0.5000000  )
        20           H   tau(  20) = (   0.5000000   0.5000000   0.2429740  )
        21           H   tau(  21) = (   0.5000000   0.5000000   0.7570260  )
        22           H   tau(  22) = (   0.5000000   0.2429740   0.5000000  )
        23           H   tau(  23) = (   0.7570260   0.5000000   0.5000000  )
        24           H   tau(  24) = (   0.2429740   0.5000000   0.5000000  )
        25           H   tau(  25) = (   0.5000000   0.7570260   0.5000000  )
        26           H   tau(  26) = (   0.0000000   0.0000000   0.2429740  )
        27           H   tau(  27) = (   0.0000000   0.0000000   0.7570260  )
        28           H   tau(  28) = (   0.0000000   0.7429740   0.5000000  )
        29           H   tau(  29) = (   0.2570260   0.0000000   0.5000000  )
        30           H   tau(  30) = (   0.7429740   0.0000000   0.5000000  )
        31           H   tau(  31) = (   0.5000000   0.2570260   0.0000000  )
        32           H   tau(  32) = (   0.0000000   0.5000000   0.7429740  )
        33           H   tau(  33) = (   0.0000000   0.5000000   0.2570260  )
        34           H   tau(  34) = (   0.0000000   0.2429740   0.0000000  )
        35           H   tau(  35) = (   0.2570260   0.5000000   0.0000000  )
        36           H   tau(  36) = (   0.7429740   0.5000000   0.0000000  )

   Crystallographic axes

     site n.     atom                  positions (cryst. coord.)
         1           Mg  tau(   1) = (  0.7500000  0.7500000  0.2500000  )
         2           Mg  tau(   2) = (  0.7500000  0.7500000  0.7500000  )
         3           Mg  tau(   3) = (  0.7500000  0.2500000  0.7500000  )
         4           Mg  tau(   4) = (  0.7500000  0.2500000  0.2500000  )
         5           Mg  tau(   5) = (  0.2500000  0.7500000  0.7500000  )
         6           Mg  tau(   6) = (  0.2500000  0.7500000  0.2500000  )
         7           Mg  tau(   7) = (  0.2500000  0.2500000  0.2500000  )
         8           Mg  tau(   8) = (  0.2500000  0.2500000  0.7500000  )
         9           Fe  tau(   9) = (  0.0000000  0.0000000  0.0000000  )
        10           Fe  tau(  10) = (  0.0000000  0.5000000  0.5000000  )
        11           Fe  tau(  11) = (  0.5000000  0.0000000  0.5000000  )
        12           Fe  tau(  12) = (  0.5000000  0.5000000  0.0000000  )
        13           H   tau(  13) = (  0.0000000  0.7570260  0.0000000  )
        14           H   tau(  14) = (  0.5000000  0.0000000  0.7429740  )
        15           H   tau(  15) = (  0.5000000  0.0000000  0.2570260  )
        16           H   tau(  16) = (  0.5000000  0.7429740  0.0000000  )
        17           H   tau(  17) = (  0.7570260  0.0000000  0.0000000  )
        18           H   tau(  18) = (  0.2429740  0.0000000  0.0000000  )
        19           H   tau(  19) = (  0.0000000  0.2570260  0.5000000  )
        20           H   tau(  20) = (  0.5000000  0.5000000  0.2429740  )
        21           H   tau(  21) = (  0.5000000  0.5000000  0.7570260  )
        22           H   tau(  22) = (  0.5000000  0.2429740  0.5000000  )
        23           H   tau(  23) = (  0.7570260  0.5000000  0.5000000  )
        24           H   tau(  24) = (  0.2429740  0.5000000  0.5000000  )
        25           H   tau(  25) = (  0.5000000  0.7570260  0.5000000  )
        26           H   tau(  26) = (  0.0000000  0.0000000  0.2429740  )
        27           H   tau(  27) = (  0.0000000  0.0000000  0.7570260  )
        28           H   tau(  28) = (  0.0000000  0.7429740  0.5000000  )
        29           H   tau(  29) = (  0.2570260  0.0000000  0.5000000  )
        30           H   tau(  30) = (  0.7429740  0.0000000  0.5000000  )
        31           H   tau(  31) = (  0.5000000  0.2570260  0.0000000  )
        32           H   tau(  32) = (  0.0000000  0.5000000  0.7429740  )
        33           H   tau(  33) = (  0.0000000  0.5000000  0.2570260  )
        34           H   tau(  34) = (  0.0000000  0.2429740  0.0000000  )
        35           H   tau(  35) = (  0.2570260  0.5000000  0.0000000  )
        36           H   tau(  36) = (  0.7429740  0.5000000  0.0000000  )

     number of k points=    20  Gaussian smearing, width (Ry)=  0.0200
                       cart. coord. in units 2pi/alat
        k(    1) = (   0.0000000   0.0000000   0.0000000), wk =   0.0092593
        k(    2) = (   0.0000000   0.0000000   0.1666667), wk =   0.0555556
        k(    3) = (   0.0000000   0.0000000   0.3333333), wk =   0.0555556
        k(    4) = (   0.0000000   0.0000000  -0.5000000), wk =   0.0277778
        k(    5) = (   0.0000000   0.1666667   0.1666667), wk =   0.1111111
        k(    6) = (   0.0000000   0.1666667   0.3333333), wk =   0.2222222
        k(    7) = (   0.0000000   0.1666667  -0.5000000), wk =   0.1111111
        k(    8) = (   0.0000000   0.3333333   0.3333333), wk =   0.1111111
        k(    9) = (   0.0000000   0.3333333  -0.5000000), wk =   0.1111111
        k(   10) = (   0.0000000  -0.5000000  -0.5000000), wk =   0.0277778
        k(   11) = (   0.1666667   0.1666667   0.1666667), wk =   0.0740741
        k(   12) = (   0.1666667   0.1666667   0.3333333), wk =   0.2222222
        k(   13) = (   0.1666667   0.1666667  -0.5000000), wk =   0.1111111
        k(   14) = (   0.1666667   0.3333333   0.3333333), wk =   0.2222222
        k(   15) = (   0.1666667   0.3333333  -0.5000000), wk =   0.2222222
        k(   16) = (   0.1666667  -0.5000000  -0.5000000), wk =   0.0555556
        k(   17) = (   0.3333333   0.3333333   0.3333333), wk =   0.0740741
        k(   18) = (   0.3333333   0.3333333  -0.5000000), wk =   0.1111111
        k(   19) = (   0.3333333  -0.5000000  -0.5000000), wk =   0.0555556
        k(   20) = (  -0.5000000  -0.5000000  -0.5000000), wk =   0.0092593

                       cryst. coord.
        k(    1) = (   0.0000000   0.0000000   0.0000000), wk =   0.0092593
        k(    2) = (   0.0000000   0.0000000   0.1666667), wk =   0.0555556
        k(    3) = (   0.0000000   0.0000000   0.3333333), wk =   0.0555556
        k(    4) = (   0.0000000   0.0000000  -0.5000000), wk =   0.0277778
        k(    5) = (   0.0000000   0.1666667   0.1666667), wk =   0.1111111
        k(    6) = (   0.0000000   0.1666667   0.3333333), wk =   0.2222222
        k(    7) = (   0.0000000   0.1666667  -0.5000000), wk =   0.1111111
        k(    8) = (   0.0000000   0.3333333   0.3333333), wk =   0.1111111
        k(    9) = (   0.0000000   0.3333333  -0.5000000), wk =   0.1111111
        k(   10) = (   0.0000000  -0.5000000  -0.5000000), wk =   0.0277778
        k(   11) = (   0.1666667   0.1666667   0.1666667), wk =   0.0740741
        k(   12) = (   0.1666667   0.1666667   0.3333333), wk =   0.2222222
        k(   13) = (   0.1666667   0.1666667  -0.5000000), wk =   0.1111111
        k(   14) = (   0.1666667   0.3333333   0.3333333), wk =   0.2222222
        k(   15) = (   0.1666667   0.3333333  -0.5000000), wk =   0.2222222
        k(   16) = (   0.1666667  -0.5000000  -0.5000000), wk =   0.0555556
        k(   17) = (   0.3333333   0.3333333   0.3333333), wk =   0.0740741
        k(   18) = (   0.3333333   0.3333333  -0.5000000), wk =   0.1111111
        k(   19) = (   0.3333333  -0.5000000  -0.5000000), wk =   0.0555556
        k(   20) = (  -0.5000000  -0.5000000  -0.5000000), wk =   0.0092593

     Dense  grid:  1038085 G-vectors     FFT dimensions: ( 125, 125, 125)

     Smooth grid:   199949 G-vectors     FFT dimensions: (  75,  75,  75)

     Dynamical RAM for                 wfc:       0.74 MB

     Dynamical RAM for     wfc (w. buffer):       8.12 MB

     Dynamical RAM for           str. fact:       1.49 MB

     Dynamical RAM for           local pot:       0.00 MB

     Dynamical RAM for          nlocal pot:       2.19 MB

     Dynamical RAM for                qrad:       7.91 MB

     Dynamical RAM for          rho,v,vnew:       2.92 MB

     Dynamical RAM for               rhoin:       0.97 MB

     Dynamical RAM for            rho*nmix:       7.92 MB

     Dynamical RAM for           G-vectors:       1.90 MB

     Dynamical RAM for          h,s,v(r/c):       0.70 MB

     Dynamical RAM for          <psi|beta>:       0.17 MB

     Dynamical RAM for                 psi:       1.48 MB

     Dynamical RAM for                hpsi:       1.48 MB

     Dynamical RAM for                spsi:       1.48 MB

     Dynamical RAM for      wfcinit/wfcrot:       2.84 MB

     Dynamical RAM for           addusdens:      52.23 MB

     Dynamical RAM for          addusforce:      63.70 MB

     Dynamical RAM for         addusstress:      49.87 MB

     Estimated static dynamical RAM per process >      29.85 MB

     Estimated max dynamical RAM per process >     101.48 MB

     Estimated total dynamical RAM >       6.09 GB

     Check: negative core charge=   -0.000001

     Initial potential from superposition of free atoms

     starting charge     103.9909, renormalised to     104.0000
     Starting wfcs are  108 randomized atomic wfcs
     Checking if some PAW data can be deallocated... 
       PAW data deallocated on   56 nodes for type:  1
       PAW data deallocated on   48 nodes for type:  3

     total cpu time spent up to now is        2.5 secs

     Self-consistent Calculation

     iteration #  1     ecut=    90.00 Ry     beta= 0.40
     Davidson diagonalization with overlap

---- Real-time Memory Report at c_bands before calling an iterative solver
           120 MiB given to the printing process from OS
             0 MiB allocation reported by mallinfo(arena+hblkhd)
        232514 MiB available memory on the node where the printing process lives
------------------
     ethr =  1.00E-02,  avg # of iterations =  2.0

     total cpu time spent up to now is        5.0 secs

     total energy              =   -1596.63372733 Ry
     estimated scf accuracy    <       4.50903381 Ry

     iteration #  2     ecut=    90.00 Ry     beta= 0.40
     Davidson diagonalization with overlap

---- Real-time Memory Report at c_bands before calling an iterative solver
           149 MiB given to the printing process from OS
             0 MiB allocation reported by mallinfo(arena+hblkhd)
        231707 MiB available memory on the node where the printing process lives
------------------
     ethr =  4.34E-03,  avg # of iterations =  4.5

     total cpu time spent up to now is        7.7 secs

     total energy              =   -1596.04377767 Ry
     estimated scf accuracy    <      18.38559153 Ry

     iteration #  3     ecut=    90.00 Ry     beta= 0.40
     Davidson diagonalization with overlap

---- Real-time Memory Report at c_bands before calling an iterative solver
           152 MiB given to the printing process from OS
             0 MiB allocation reported by mallinfo(arena+hblkhd)
        231670 MiB available memory on the node where the printing process lives
------------------
     ethr =  4.34E-03,  avg # of iterations =  4.0

     total cpu time spent up to now is       10.2 secs

     total energy              =   -1597.88864726 Ry
     estimated scf accuracy    <       0.45860526 Ry

     iteration #  4     ecut=    90.00 Ry     beta= 0.40
     Davidson diagonalization with overlap

---- Real-time Memory Report at c_bands before calling an iterative solver
           153 MiB given to the printing process from OS
             0 MiB allocation reported by mallinfo(arena+hblkhd)
        231674 MiB available memory on the node where the printing process lives
------------------
     ethr =  4.41E-04,  avg # of iterations =  2.9

     total cpu time spent up to now is       12.7 secs

     total energy              =   -1597.97197347 Ry
     estimated scf accuracy    <       0.03524088 Ry

     iteration #  5     ecut=    90.00 Ry     beta= 0.40
     Davidson diagonalization with overlap

---- Real-time Memory Report at c_bands before calling an iterative solver
           154 MiB given to the printing process from OS
             0 MiB allocation reported by mallinfo(arena+hblkhd)
        231678 MiB available memory on the node where the printing process lives
------------------
     ethr =  3.39E-05,  avg # of iterations =  3.9

     total cpu time spent up to now is       15.4 secs

     total energy              =   -1597.98140956 Ry
     estimated scf accuracy    <       0.00260691 Ry

     iteration #  6     ecut=    90.00 Ry     beta= 0.40
     Davidson diagonalization with overlap

---- Real-time Memory Report at c_bands before calling an iterative solver
           154 MiB given to the printing process from OS
             0 MiB allocation reported by mallinfo(arena+hblkhd)
        231676 MiB available memory on the node where the printing process lives
------------------
     ethr =  2.51E-06,  avg # of iterations =  6.4

     total cpu time spent up to now is       18.8 secs

     total energy              =   -1597.98195740 Ry
     estimated scf accuracy    <       0.00235771 Ry

     iteration #  7     ecut=    90.00 Ry     beta= 0.40
     Davidson diagonalization with overlap

---- Real-time Memory Report at c_bands before calling an iterative solver
           155 MiB given to the printing process from OS
             0 MiB allocation reported by mallinfo(arena+hblkhd)
        231679 MiB available memory on the node where the printing process lives
------------------
     ethr =  2.27E-06,  avg # of iterations =  2.5

     total cpu time spent up to now is       20.9 secs

     total energy              =   -1597.98206545 Ry
     estimated scf accuracy    <       0.00111432 Ry

     iteration #  8     ecut=    90.00 Ry     beta= 0.40
     Davidson diagonalization with overlap

---- Real-time Memory Report at c_bands before calling an iterative solver
           155 MiB given to the printing process from OS
             0 MiB allocation reported by mallinfo(arena+hblkhd)
        231669 MiB available memory on the node where the printing process lives
------------------
     ethr =  1.07E-06,  avg # of iterations =  2.1

     total cpu time spent up to now is       23.2 secs

     total energy              =   -1597.98220868 Ry
     estimated scf accuracy    <       0.00010379 Ry

     iteration #  9     ecut=    90.00 Ry     beta= 0.40
     Davidson diagonalization with overlap

---- Real-time Memory Report at c_bands before calling an iterative solver
           156 MiB given to the printing process from OS
             0 MiB allocation reported by mallinfo(arena+hblkhd)
        231668 MiB available memory on the node where the printing process lives
------------------
     ethr =  9.98E-08,  avg # of iterations =  5.1

     total cpu time spent up to now is       26.2 secs

     total energy              =   -1597.98224870 Ry
     estimated scf accuracy    <       0.00007318 Ry

     iteration # 10     ecut=    90.00 Ry     beta= 0.40
     Davidson diagonalization with overlap

---- Real-time Memory Report at c_bands before calling an iterative solver
           156 MiB given to the printing process from OS
             0 MiB allocation reported by mallinfo(arena+hblkhd)
        231662 MiB available memory on the node where the printing process lives
------------------
     ethr =  7.04E-08,  avg # of iterations =  1.1

     total cpu time spent up to now is       28.2 secs

     total energy              =   -1597.98224233 Ry
     estimated scf accuracy    <       0.00003072 Ry

     iteration # 11     ecut=    90.00 Ry     beta= 0.40
     Davidson diagonalization with overlap

---- Real-time Memory Report at c_bands before calling an iterative solver
           157 MiB given to the printing process from OS
             0 MiB allocation reported by mallinfo(arena+hblkhd)
        231655 MiB available memory on the node where the printing process lives
------------------
     ethr =  2.95E-08,  avg # of iterations =  2.1

     total cpu time spent up to now is       30.4 secs

     total energy              =   -1597.98224642 Ry
     estimated scf accuracy    <       0.00000161 Ry

     iteration # 12     ecut=    90.00 Ry     beta= 0.40
     Davidson diagonalization with overlap

---- Real-time Memory Report at c_bands before calling an iterative solver
           157 MiB given to the printing process from OS
             0 MiB allocation reported by mallinfo(arena+hblkhd)
        231663 MiB available memory on the node where the printing process lives
------------------
     ethr =  1.55E-09,  avg # of iterations =  7.5

     total cpu time spent up to now is       34.6 secs

     total energy              =   -1597.98224836 Ry
     estimated scf accuracy    <       0.00000231 Ry

     iteration # 13     ecut=    90.00 Ry     beta= 0.40
     Davidson diagonalization with overlap

---- Real-time Memory Report at c_bands before calling an iterative solver
           157 MiB given to the printing process from OS
             0 MiB allocation reported by mallinfo(arena+hblkhd)
        231666 MiB available memory on the node where the printing process lives
------------------
     ethr =  1.55E-09,  avg # of iterations =  1.4

     total cpu time spent up to now is       36.5 secs

     total energy              =   -1597.98224830 Ry
     estimated scf accuracy    <       0.00000049 Ry

     iteration # 14     ecut=    90.00 Ry     beta= 0.40
     Davidson diagonalization with overlap

---- Real-time Memory Report at c_bands before calling an iterative solver
           158 MiB given to the printing process from OS
             0 MiB allocation reported by mallinfo(arena+hblkhd)
        231666 MiB available memory on the node where the printing process lives
------------------
     ethr =  4.73E-10,  avg # of iterations =  3.9

     total cpu time spent up to now is       39.1 secs

     total energy              =   -1597.98224842 Ry
     estimated scf accuracy    <       0.00000016 Ry

     iteration # 15     ecut=    90.00 Ry     beta= 0.40
     Davidson diagonalization with overlap

---- Real-time Memory Report at c_bands before calling an iterative solver
           158 MiB given to the printing process from OS
             0 MiB allocation reported by mallinfo(arena+hblkhd)
        231667 MiB available memory on the node where the printing process lives
------------------
     ethr =  1.51E-10,  avg # of iterations =  4.5

     total cpu time spent up to now is       41.6 secs

     End of self-consistent calculation

          k = 0.0000 0.0000 0.0000 ( 24885 PWs)   bands (ev):

   -79.7364 -79.7364 -79.7364 -79.7364 -45.9840 -45.9840 -45.9840 -45.9838
   -45.9838 -45.9838 -45.9838 -45.9838 -45.9838 -45.9837 -45.9837 -45.9837
    -4.1007  -1.4713  -1.4713  -1.4713   0.0615   0.0615   0.0615   0.9923
     0.9923   0.9923   1.8993   1.8993   1.8993   1.8993   1.8993   1.8993
     2.2234   2.2234   2.6061   2.6061   2.6061   3.3349   3.3349   3.3349
     4.0625   4.0625   4.0625   4.7280   4.7280   4.7280   5.5054   5.5054
     5.5054   5.5054   5.5054   5.5054   7.3168   7.3168   7.3168   9.3097
     9.3097   9.3097  10.8012  10.8012  10.8013  10.8974

     occupation numbers 
     1.0000   1.0000   1.0000   1.0000   1.0000   1.0000   1.0000   1.0000
     1.0000   1.0000   1.0000   1.0000   1.0000   1.0000   1.0000   1.0000
     1.0000   1.0000   1.0000   1.0000   1.0000   1.0000   1.0000   1.0000
     1.0000   1.0000   1.0000   1.0000   1.0000   1.0000   1.0000   1.0000
     1.0000   1.0000   1.0000   1.0000   1.0000   1.0000   1.0000   1.0000
     1.0000   1.0000   1.0000   1.0000   1.0000   1.0000   1.0000   1.0000
     1.0000   1.0000   1.0000   1.0000   0.0000   0.0000   0.0000   0.0000
     0.0000   0.0000   0.0000   0.0000   0.0000   0.0000

          k = 0.0000 0.0000 0.1667 ( 25032 PWs)   bands (ev):

   -79.7364 -79.7364 -79.7364 -79.7364 -45.9840 -45.9840 -45.9840 -45.9838
   -45.9838 -45.9838 -45.9838 -45.9838 -45.9838 -45.9838 -45.9837 -45.9837
    -4.0029  -1.9060  -1.3839  -1.3839   0.1399   0.1399   0.4469   0.6003
     0.6003   1.1973   1.6698   1.6698   1.9611   1.9611   2.0728   2.0785
     2.0785   2.2477   2.5791   2.7724   2.7724   3.1565   3.1565   3.2999
     4.1048   4.2924   4.2924   4.6813   4.8700   4.8700   5.4715   5.4715
     5.4912   5.4912   5.5055   5.5055   7.3585   7.4823   7.4823   9.3527
     9.4536   9.4536  10.0675  10.5330  10.9343  10.9702

     occupation numbers 
     1.0000   1.0000   1.0000   1.0000   1.0000   1.0000   1.0000   1.0000
     1.0000   1.0000   1.0000   1.0000   1.0000   1.0000   1.0000   1.0000
     1.0000   1.0000   1.0000   1.0000   1.0000   1.0000   1.0000   1.0000
     1.0000   1.0000   1.0000   1.0000   1.0000   1.0000   1.0000   1.0000
     1.0000   1.0000   1.0000   1.0000   1.0000   1.0000   1.0000   1.0000
     1.0000   1.0000   1.0000   1.0000   1.0000   1.0000   1.0000   1.0000
     1.0000   1.0000   1.0000   1.0000   0.0000   0.0000   0.0000   0.0000
     0.0000   0.0000   0.0000   0.0000   0.0000   0.0000

          k = 0.0000 0.0000 0.3333 ( 24952 PWs)   bands (ev):

   -79.7364 -79.7364 -79.7364 -79.7364 -45.9840 -45.9840 -45.9840 -45.9839
   -45.9839 -45.9838 -45.9838 -45.9838 -45.9838 -45.9838 -45.9837 -45.9837
    -3.7127  -2.6134  -1.1351  -1.1351  -0.0149  -0.0149   0.3707   0.3707
     0.9068   1.2027   1.2027   1.7179   1.8585   2.1428   2.1428   2.1847
     2.1847   2.3151   2.5062   2.7939   2.7939   3.0999   3.1088   3.1088
     4.2221   4.5551   4.7361   4.7361   5.1244   5.1244   5.3547   5.3547
     5.4391   5.4391   5.5056   5.5056   7.5382   7.9739   7.9739   8.8733
     9.4876   9.9140   9.9140  10.0896  10.3987  10.3987

     occupation numbers 
     1.0000   1.0000   1.0000   1.0000   1.0000   1.0000   1.0000   1.0000
     1.0000   1.0000   1.0000   1.0000   1.0000   1.0000   1.0000   1.0000
     1.0000   1.0000   1.0000   1.0000   1.0000   1.0000   1.0000   1.0000
     1.0000   1.0000   1.0000   1.0000   1.0000   1.0000   1.0000   1.0000
     1.0000   1.0000   1.0000   1.0000   1.0000   1.0000   1.0000   1.0000
     1.0000   1.0000   1.0000   1.0000   1.0000   1.0000   1.0000   1.0000
     1.0000   1.0000   1.0000   1.0000   0.0000   0.0000   0.0000   0.0000
     0.0000   0.0000   0.0000   0.0000   0.0000   0.0000

          k = 0.0000 0.0000-0.5000 ( 24964 PWs)   bands (ev):

   -79.7364 -79.7364 -79.7364 -79.7364 -45.9839 -45.9839 -45.9839 -45.9839
   -45.9839 -45.9839 -45.9838 -45.9838 -45.9838 -45.9838 -45.9838 -45.9838
    -3.2409  -3.2409  -0.8809  -0.8809  -0.4058  -0.4058   0.7376   0.7376
     0.7376   0.7376   1.3052   1.3052   2.2058   2.2058   2.4093   2.4093
     2.4309   2.4309   2.4309   2.4309   2.6052   2.6052   3.2597   3.2597
     4.3864   4.3864   5.1171   5.1171   5.1171   5.1171   5.3242   5.3242
     5.3242   5.3242   5.5056   5.5056   8.0005   8.0005   8.4619   8.4619
     9.6707   9.6707   9.7291   9.7291  10.7304  10.7304

     occupation numbers 
     1.0000   1.0000   1.0000   1.0000   1.0000   1.0000   1.0000   1.0000
     1.0000   1.0000   1.0000   1.0000   1.0000   1.0000   1.0000   1.0000
     1.0000   1.0000   1.0000   1.0000   1.0000   1.0000   1.0000   1.0000
     1.0000   1.0000   1.0000   1.0000   1.0000   1.0000   1.0000   1.0000
     1.0000   1.0000   1.0000   1.0000   1.0000   1.0000   1.0000   1.0000
     1.0000   1.0000   1.0000   1.0000   1.0000   1.0000   1.0000   1.0000
     1.0000   1.0000   1.0000   1.0000   0.0000   0.0000   0.0000   0.0000
     0.0000   0.0000   0.0000   0.0000   0.0000   0.0000

          k = 0.0000 0.1667 0.1667 ( 24971 PWs)   bands (ev):

   -79.7364 -79.7364 -79.7364 -79.7364 -45.9840 -45.9840 -45.9840 -45.9839
   -45.9838 -45.9838 -45.9838 -45.9838 -45.9838 -45.9838 -45.9837 -45.9837
    -3.9054  -1.8167  -1.8167  -1.3019   0.2154   0.2178   0.4792   0.4792
     0.8088   0.8088   1.7346   1.7346   1.7665   2.0454   2.0743   2.1299
     2.1497   2.1497   2.7710   2.7710   2.8054   2.8723   2.9752   3.5591
     4.3289   4.3289   4.4488   4.7872   4.8702   4.9394   5.4585   5.4585
     5.4630   5.4827   5.4902   5.4902   7.5188   7.5188   7.6078   9.4989
     9.4989   9.6289   9.9583  10.3759  10.5557  10.8869

     occupation numbers 
     1.0000   1.0000   1.0000   1.0000   1.0000   1.0000   1.0000   1.0000
     1.0000   1.0000   1.0000   1.0000   1.0000   1.0000   1.0000   1.0000
     1.0000   1.0000   1.0000   1.0000   1.0000   1.0000   1.0000   1.0000
     1.0000   1.0000   1.0000   1.0000   1.0000   1.0000   1.0000   1.0000
     1.0000   1.0000   1.0000   1.0000   1.0000   1.0000   1.0000   1.0000
     1.0000   1.0000   1.0000   1.0000   1.0000   1.0000   1.0000   1.0000
     1.0000   1.0000   1.0000   1.0000   0.0000   0.0000   0.0000   0.0000
     0.0000   0.0000   0.0000   0.0000   0.0000   0.0000

          k = 0.0000 0.1667 0.3333 ( 24936 PWs)   bands (ev):

   -79.7364 -79.7364 -79.7364 -79.7364 -45.9840 -45.9840 -45.9840 -45.9839
   -45.9839 -45.9838 -45.9838 -45.9838 -45.9838 -45.9838 -45.9838 -45.9837
    -3.6161  -2.5210  -1.5569  -1.0953  -0.3664   0.0753   0.4469   0.7807
     0.8158   1.2722   1.4203   1.4767   1.6814   1.9245   2.0525   2.1955
     2.2330   2.3372   2.5438   2.6017   2.8459   3.1478   3.1614   3.5481
     4.4296   4.7107   4.7602   4.7840   5.1047   5.1201   5.3448   5.3572
     5.4095   5.4346   5.4795   5.4873   7.6826   7.9870   7.9887   8.9573
     9.6393   9.9648  10.1626  10.2165  10.2309  10.2924

     occupation numbers 
     1.0000   1.0000   1.0000   1.0000   1.0000   1.0000   1.0000   1.0000
     1.0000   1.0000   1.0000   1.0000   1.0000   1.0000   1.0000   1.0000
     1.0000   1.0000   1.0000   1.0000   1.0000   1.0000   1.0000   1.0000
     1.0000   1.0000   1.0000   1.0000   1.0000   1.0000   1.0000   1.0000
     1.0000   1.0000   1.0000   1.0000   1.0000   1.0000   1.0000   1.0000
     1.0000   1.0000   1.0000   1.0000   1.0000   1.0000   1.0000   1.0000
     1.0000   1.0000   1.0000   1.0000   0.0000   0.0000   0.0000   0.0000
     0.0000   0.0000   0.0000   0.0000   0.0000   0.0000

          k = 0.0000 0.1667-0.5000 ( 24946 PWs)   bands (ev):

   -79.7364 -79.7364 -79.7364 -79.7364 -45.9839 -45.9839 -45.9839 -45.9839
   -45.9839 -45.9839 -45.9838 -45.9838 -45.9838 -45.9838 -45.9838 -45.9838
    -3.1460  -3.1460  -1.1788  -1.1788  -0.4282  -0.4282   0.8111   0.8111
     1.0925   1.0925   1.2135   1.2135   1.8565   1.8565   2.2248   2.2248
     2.2383   2.2383   2.4475   2.4475   3.2034   3.2034   3.3128   3.3128
     4.5695   4.5695   5.1172   5.1172   5.1287   5.1287   5.3000   5.3001
     5.3131   5.3131   5.4833   5.4833   8.1192   8.1192   8.4049   8.4049
     9.5907   9.5907   9.8844   9.8844  10.7845  10.7846

     occupation numbers 
     1.0000   1.0000   1.0000   1.0000   1.0000   1.0000   1.0000   1.0000
     1.0000   1.0000   1.0000   1.0000   1.0000   1.0000   1.0000   1.0000
     1.0000   1.0000   1.0000   1.0000   1.0000   1.0000   1.0000   1.0000
     1.0000   1.0000   1.0000   1.0000   1.0000   1.0000   1.0000   1.0000
     1.0000   1.0000   1.0000   1.0000   1.0000   1.0000   1.0000   1.0000
     1.0000   1.0000   1.0000   1.0000   1.0000   1.0000   1.0000   1.0000
     1.0000   1.0000   1.0000   1.0000   0.0000   0.0000   0.0000   0.0000
     0.0000   0.0000   0.0000   0.0000   0.0000   0.0000

          k = 0.0000 0.3333 0.3333 ( 24982 PWs)   bands (ev):

   -79.7364 -79.7364 -79.7364 -79.7364 -45.9840 -45.9840 -45.9839 -45.9839
   -45.9839 -45.9838 -45.9838 -45.9838 -45.9838 -45.9838 -45.9838 -45.9837
    -3.3298  -2.2484  -2.2484  -1.2951  -0.5584   0.3414   0.3414   0.6711
     1.3094   1.3435   1.3435   1.4762   1.4762   1.6252   1.7784   2.2027
     2.2689   2.3511   2.3511   2.4777   3.3397   3.3397   3.3714   3.8541
     4.8257   4.8257   4.9156   4.9454   5.1014   5.1388   5.3058   5.3058
     5.3386   5.4124   5.4223   5.4223   8.0937   8.0937   8.1169   9.1044
     9.3830   9.8912   9.8912   9.8989  10.1163  10.1163

     occupation numbers 
     1.0000   1.0000   1.0000   1.0000   1.0000   1.0000   1.0000   1.0000
     1.0000   1.0000   1.0000   1.0000   1.0000   1.0000   1.0000   1.0000
     1.0000   1.0000   1.0000   1.0000   1.0000   1.0000   1.0000   1.0000
     1.0000   1.0000   1.0000   1.0000   1.0000   1.0000   1.0000   1.0000
     1.0000   1.0000   1.0000   1.0000   1.0000   1.0000   1.0000   1.0000
     1.0000   1.0000   1.0000   1.0000   1.0000   1.0000   1.0000   1.0000
     1.0000   1.0000   1.0000   1.0000   0.0000   0.0000   0.0000   0.0000
     0.0000   0.0000   0.0000   0.0000   0.0000   0.0000

          k = 0.0000 0.3333-0.5000 ( 25006 PWs)   bands (ev):

   -79.7364 -79.7364 -79.7364 -79.7364 -45.9840 -45.9840 -45.9839 -45.9839
   -45.9839 -45.9839 -45.9838 -45.9838 -45.9838 -45.9838 -45.9838 -45.9838
    -2.8649  -2.8649  -1.8146  -1.8146  -0.1987  -0.1987   0.7677   0.7677
     1.0269   1.0269   1.4966   1.4966   1.6465   1.6465   1.7985   1.7985
     2.3309   2.3309   2.4367   2.4367   3.5286   3.5286   3.7013   3.7013
     4.9113   4.9113   5.1163   5.1163   5.1573   5.1573   5.2239   5.2239
     5.2856   5.2856   5.4070   5.4071   8.3842   8.3842   8.4549   8.4549
     9.3986   9.3986   9.5658   9.5658  10.3528  10.3528

     occupation numbers 
     1.0000   1.0000   1.0000   1.0000   1.0000   1.0000   1.0000   1.0000
     1.0000   1.0000   1.0000   1.0000   1.0000   1.0000   1.0000   1.0000
     1.0000   1.0000   1.0000   1.0000   1.0000   1.0000   1.0000   1.0000
     1.0000   1.0000   1.0000   1.0000   1.0000   1.0000   1.0000   1.0000
     1.0000   1.0000   1.0000   1.0000   1.0000   1.0000   1.0000   1.0000
     1.0000   1.0000   1.0000   1.0000   1.0000   1.0000   1.0000   1.0000
     1.0000   1.0000   1.0000   1.0000   0.0000   0.0000   0.0000   0.0000
     0.0000   0.0000   0.0000   0.0000   0.0000   0.0000

          k = 0.0000-0.5000-0.5000 ( 25036 PWs)   bands (ev):

   -79.7364 -79.7364 -79.7364 -79.7364 -45.9840 -45.9840 -45.9840 -45.9840
   -45.9839 -45.9839 -45.9839 -45.9839 -45.9838 -45.9838 -45.9838 -45.9838
    -2.4105  -2.4105  -2.4105  -2.4105   0.2240   0.2240   0.2240   0.2240
     1.3687   1.3687   1.3687   1.3687   1.6237   1.6237   1.6237   1.6237
     2.4069   2.4069   2.4069   2.4069   3.7931   3.7931   3.7931   3.7931
     5.1388   5.1388   5.1388   5.1388   5.1505   5.1505   5.1505   5.1505
     5.2878   5.2878   5.2878   5.2878   8.6181   8.6181   8.6181   8.6181
     9.0942   9.0942   9.0942   9.0942  10.9472  10.9472

     occupation numbers 
     1.0000   1.0000   1.0000   1.0000   1.0000   1.0000   1.0000   1.0000
     1.0000   1.0000   1.0000   1.0000   1.0000   1.0000   1.0000   1.0000
     1.0000   1.0000   1.0000   1.0000   1.0000   1.0000   1.0000   1.0000
     1.0000   1.0000   1.0000   1.0000   1.0000   1.0000   1.0000   1.0000
     1.0000   1.0000   1.0000   1.0000   1.0000   1.0000   1.0000   1.0000
     1.0000   1.0000   1.0000   1.0000   1.0000   1.0000   1.0000   1.0000
     1.0000   1.0000   1.0000   1.0000   0.0000   0.0000   0.0000   0.0000
     0.0000   0.0000   0.0000   0.0000   0.0000   0.0000

          k = 0.1667 0.1667 0.1667 ( 24987 PWs)   bands (ev):

   -79.7364 -79.7364 -79.7364 -79.7364 -45.9840 -45.9840 -45.9840 -45.9838
   -45.9838 -45.9838 -45.9838 -45.9838 -45.9838 -45.9838 -45.9837 -45.9837
    -3.8083  -1.7305  -1.7305  -1.7305   0.2944   0.2944   0.2944   0.6563
     0.6563   0.6563   1.8066   1.8066   1.8066   2.0526   2.0526   2.1997
     2.1997   2.1997   2.2388   2.8626   2.8626   2.8626   3.4086   3.4086
     4.4823   4.4823   4.4823   4.9080   4.9142   4.9142   5.4517   5.4517
     5.4517   5.4656   5.4656   5.4656   7.6405   7.6405   7.6405   9.6735
     9.6735   9.6735  10.0093  10.0093  10.4057  11.0620

     occupation numbers 
     1.0000   1.0000   1.0000   1.0000   1.0000   1.0000   1.0000   1.0000
     1.0000   1.0000   1.0000   1.0000   1.0000   1.0000   1.0000   1.0000
     1.0000   1.0000   1.0000   1.0000   1.0000   1.0000   1.0000   1.0000
     1.0000   1.0000   1.0000   1.0000   1.0000   1.0000   1.0000   1.0000
     1.0000   1.0000   1.0000   1.0000   1.0000   1.0000   1.0000   1.0000
     1.0000   1.0000   1.0000   1.0000   1.0000   1.0000   1.0000   1.0000
     1.0000   1.0000   1.0000   1.0000   0.0000   0.0000   0.0000   0.0000
     0.0000   0.0000   0.0000   0.0000   0.0000   0.0000

          k = 0.1667 0.1667 0.3333 ( 24969 PWs)   bands (ev):

   -79.7364 -79.7364 -79.7364 -79.7364 -45.9840 -45.9840 -45.9840 -45.9839
   -45.9839 -45.9839 -45.9838 -45.9838 -45.9838 -45.9838 -45.9837 -45.9837
    -3.5201  -2.4300  -1.4886  -1.4886  -0.2984  -0.2984   0.5581   0.8246
     0.8246   1.2655   1.5363   1.5363   1.5416   1.9087   1.9324   2.0568
     2.2943   2.2943   2.6096   2.8574   3.1303   3.1788   3.1788   3.5223
     4.5757   4.8081   4.8081   4.8310   5.0643   5.1387   5.3475   5.3475
     5.4028   5.4090   5.4607   5.4607   7.7923   8.0050   8.0050   9.0193
     9.8078  10.1405  10.1406  10.1568  10.2008  10.2008

     occupation numbers 
     1.0000   1.0000   1.0000   1.0000   1.0000   1.0000   1.0000   1.0000
     1.0000   1.0000   1.0000   1.0000   1.0000   1.0000   1.0000   1.0000
     1.0000   1.0000   1.0000   1.0000   1.0000   1.0000   1.0000   1.0000
     1.0000   1.0000   1.0000   1.0000   1.0000   1.0000   1.0000   1.0000
     1.0000   1.0000   1.0000   1.0000   1.0000   1.0000   1.0000   1.0000
     1.0000   1.0000   1.0000   1.0000   1.0000   1.0000   1.0000   1.0000
     1.0000   1.0000   1.0000   1.0000   0.0000   0.0000   0.0000   0.0000
     0.0000   0.0000   0.0000   0.0000   0.0000   0.0000

          k = 0.1667 0.1667-0.5000 ( 24958 PWs)   bands (ev):

   -79.7364 -79.7364 -79.7364 -79.7364 -45.9840 -45.9840 -45.9839 -45.9839
   -45.9839 -45.9839 -45.9838 -45.9838 -45.9838 -45.9838 -45.9838 -45.9838
    -3.0518  -3.0518  -1.2603  -1.2603  -0.6661  -0.6661   0.9832   0.9832
     1.0594   1.0594   1.2420   1.2420   1.6677   1.6677   2.0133   2.0133
     2.3124   2.3124   2.9262   2.9262   3.1758   3.1758   3.3469   3.3469
     4.7056   4.7056   5.1283   5.1283   5.1298   5.1298   5.2671   5.2671
     5.3118   5.3118   5.4606   5.4606   8.2095   8.2095   8.3691   8.3691
     9.5181   9.5181  10.0224  10.0224  10.3873  10.3873

     occupation numbers 
     1.0000   1.0000   1.0000   1.0000   1.0000   1.0000   1.0000   1.0000
     1.0000   1.0000   1.0000   1.0000   1.0000   1.0000   1.0000   1.0000
     1.0000   1.0000   1.0000   1.0000   1.0000   1.0000   1.0000   1.0000
     1.0000   1.0000   1.0000   1.0000   1.0000   1.0000   1.0000   1.0000
     1.0000   1.0000   1.0000   1.0000   1.0000   1.0000   1.0000   1.0000
     1.0000   1.0000   1.0000   1.0000   1.0000   1.0000   1.0000   1.0000
     1.0000   1.0000   1.0000   1.0000   0.0000   0.0000   0.0000   0.0000
     0.0000   0.0000   0.0000   0.0000   0.0000   0.0000

          k = 0.1667 0.3333 0.3333 ( 24970 PWs)   bands (ev):

   -79.7364 -79.7364 -79.7364 -79.7364 -45.9840 -45.9840 -45.9840 -45.9839
   -45.9839 -45.9838 -45.9838 -45.9838 -45.9838 -45.9838 -45.9838 -45.9837
    -3.2352  -2.1636  -2.1636  -1.4097  -0.7659  -0.0374  -0.0374   0.9730
     1.0071   1.3114   1.3114   1.6474   1.6796   1.6796   1.7814   1.9304
     2.4476   2.5820   2.5820   3.0425   3.3034   3.3034   3.3638   3.7549
     4.8747   4.8747   4.9360   5.0207   5.0388   5.1666   5.3059   5.3059
     5.3349   5.3872   5.3962   5.3962   8.1174   8.1174   8.1382   9.1358
     9.3641   9.7991   9.8506   9.8506  10.2942  10.2943

     occupation numbers 
     1.0000   1.0000   1.0000   1.0000   1.0000   1.0000   1.0000   1.0000
     1.0000   1.0000   1.0000   1.0000   1.0000   1.0000   1.0000   1.0000
     1.0000   1.0000   1.0000   1.0000   1.0000   1.0000   1.0000   1.0000
     1.0000   1.0000   1.0000   1.0000   1.0000   1.0000   1.0000   1.0000
     1.0000   1.0000   1.0000   1.0000   1.0000   1.0000   1.0000   1.0000
     1.0000   1.0000   1.0000   1.0000   1.0000   1.0000   1.0000   1.0000
     1.0000   1.0000   1.0000   1.0000   0.0000   0.0000   0.0000   0.0000
     0.0000   0.0000   0.0000   0.0000   0.0000   0.0000

          k = 0.1667 0.3333-0.5000 ( 24990 PWs)   bands (ev):

   -79.7364 -79.7364 -79.7364 -79.7364 -45.9840 -45.9840 -45.9840 -45.9840
   -45.9839 -45.9839 -45.9838 -45.9838 -45.9838 -45.9838 -45.9838 -45.9838
    -2.7735  -2.7735  -1.7544  -1.7544  -0.5744  -0.5744   0.3985   0.3985
     1.2742   1.2742   1.5459   1.5459   1.6130   1.6130   1.8120   1.8120
     2.5231   2.5231   2.8392   2.8392   3.5188   3.5188   3.6258   3.6258
     4.9637   4.9637   5.1246   5.1246   5.1609   5.1609   5.1963   5.1963
     5.2834   5.2834   5.3830   5.3830   8.3835   8.3835   8.4836   8.4836
     9.3465   9.3465   9.5477   9.5477  10.3542  10.3542

     occupation numbers 
     1.0000   1.0000   1.0000   1.0000   1.0000   1.0000   1.0000   1.0000
     1.0000   1.0000   1.0000   1.0000   1.0000   1.0000   1.0000   1.0000
     1.0000   1.0000   1.0000   1.0000   1.0000   1.0000   1.0000   1.0000
     1.0000   1.0000   1.0000   1.0000   1.0000   1.0000   1.0000   1.0000
     1.0000   1.0000   1.0000   1.0000   1.0000   1.0000   1.0000   1.0000
     1.0000   1.0000   1.0000   1.0000   1.0000   1.0000   1.0000   1.0000
     1.0000   1.0000   1.0000   1.0000   0.0000   0.0000   0.0000   0.0000
     0.0000   0.0000   0.0000   0.0000   0.0000   0.0000

          k = 0.1667-0.5000-0.5000 ( 24968 PWs)   bands (ev):

   -79.7364 -79.7364 -79.7364 -79.7364 -45.9840 -45.9840 -45.9840 -45.9840
   -45.9838 -45.9838 -45.9838 -45.9838 -45.9838 -45.9838 -45.9838 -45.9838
    -2.3262  -2.3262  -2.3262  -2.3262  -0.1665  -0.1665  -0.1665  -0.1665
     1.5292   1.5292   1.5292   1.5292   1.6339   1.6339   1.6339   1.6339
     2.6967   2.6967   2.6967   2.6967   3.7573   3.7573   3.7573   3.7573
     5.1302   5.1302   5.1302   5.1302   5.1678   5.1678   5.1678   5.1678
     5.2669   5.2669   5.2669   5.2669   8.6371   8.6371   8.6371   8.6371
     9.0675   9.0675   9.0675   9.0675  10.6690  10.6690

     occupation numbers 
     1.0000   1.0000   1.0000   1.0000   1.0000   1.0000   1.0000   1.0000
     1.0000   1.0000   1.0000   1.0000   1.0000   1.0000   1.0000   1.0000
     1.0000   1.0000   1.0000   1.0000   1.0000   1.0000   1.0000   1.0000
     1.0000   1.0000   1.0000   1.0000   1.0000   1.0000   1.0000   1.0000
     1.0000   1.0000   1.0000   1.0000   1.0000   1.0000   1.0000   1.0000
     1.0000   1.0000   1.0000   1.0000   1.0000   1.0000   1.0000   1.0000
     1.0000   1.0000   1.0000   1.0000   0.0000   0.0000   0.0000   0.0000
     0.0000   0.0000   0.0000   0.0000   0.0000   0.0000

          k = 0.3333 0.3333 0.3333 ( 24987 PWs)   bands (ev):

   -79.7364 -79.7364 -79.7364 -79.7364 -45.9840 -45.9840 -45.9840 -45.9840
   -45.9838 -45.9838 -45.9838 -45.9838 -45.9838 -45.9838 -45.9837 -45.9837
    -2.9556  -1.9299  -1.9299  -1.9299  -0.6506  -0.6506  -0.6506   0.3391
     1.4018   1.4018   1.4018   1.7012   1.7012   1.7012   1.7803   1.7803
     2.9677   2.9677   2.9677   3.3631   3.3631   3.3631   3.5647   3.5647
     4.9877   4.9917   4.9917   4.9917   5.1576   5.1576   5.2980   5.2980
     5.2980   5.3156   5.3156   5.3156   8.2582   8.2582   8.2582   9.2300
     9.2300   9.5897   9.5897   9.5897   9.7942  10.6104

     occupation numbers 
     1.0000   1.0000   1.0000   1.0000   1.0000   1.0000   1.0000   1.0000
     1.0000   1.0000   1.0000   1.0000   1.0000   1.0000   1.0000   1.0000
     1.0000   1.0000   1.0000   1.0000   1.0000   1.0000   1.0000   1.0000
     1.0000   1.0000   1.0000   1.0000   1.0000   1.0000   1.0000   1.0000
     1.0000   1.0000   1.0000   1.0000   1.0000   1.0000   1.0000   1.0000
     1.0000   1.0000   1.0000   1.0000   1.0000   1.0000   1.0000   1.0000
     1.0000   1.0000   1.0000   1.0000   0.0000   0.0000   0.0000   0.0000
     0.0000   0.0000   0.0000   0.0000   0.0000   0.0000

          k = 0.3333 0.3333-0.5000 ( 24972 PWs)   bands (ev):

   -79.7364 -79.7364 -79.7364 -79.7364 -45.9840 -45.9840 -45.9840 -45.9840
   -45.9838 -45.9838 -45.9838 -45.9838 -45.9838 -45.9838 -45.9838 -45.9838
    -2.5060  -2.5060  -1.7250  -1.7250  -0.9993  -0.9993  -0.2373  -0.2373
     1.4973   1.4973   1.6291   1.6291   1.6316   1.6316   1.7545   1.7545
     3.0122   3.0122   3.4198   3.4198   3.5080   3.5080   3.5453   3.5453
     5.0460   5.0460   5.1254   5.1254   5.1531   5.1531   5.1760   5.1760
     5.2617   5.2617   5.3077   5.3077   8.4637   8.4637   8.6252   8.6252
     9.2217   9.2217   9.3850   9.3850  10.0655  10.0655

     occupation numbers 
     1.0000   1.0000   1.0000   1.0000   1.0000   1.0000   1.0000   1.0000
     1.0000   1.0000   1.0000   1.0000   1.0000   1.0000   1.0000   1.0000
     1.0000   1.0000   1.0000   1.0000   1.0000   1.0000   1.0000   1.0000
     1.0000   1.0000   1.0000   1.0000   1.0000   1.0000   1.0000   1.0000
     1.0000   1.0000   1.0000   1.0000   1.0000   1.0000   1.0000   1.0000
     1.0000   1.0000   1.0000   1.0000   1.0000   1.0000   1.0000   1.0000
     1.0000   1.0000   1.0000   1.0000   0.0000   0.0000   0.0000   0.0000
     0.0000   0.0000   0.0000   0.0000   0.0000   0.0000

          k = 0.3333-0.5000-0.5000 ( 24996 PWs)   bands (ev):

   -79.7364 -79.7364 -79.7364 -79.7364 -45.9840 -45.9840 -45.9840 -45.9840
   -45.9838 -45.9838 -45.9838 -45.9838 -45.9838 -45.9838 -45.9838 -45.9838
    -2.0956  -2.0955  -2.0955  -2.0955  -0.7830  -0.7830  -0.7830  -0.7830
     1.6401   1.6401   1.6401   1.6401   1.6550   1.6550   1.6550   1.6550
     3.3141   3.3141   3.3141   3.3141   3.6877   3.6877   3.6877   3.6877
     5.0747   5.0747   5.0747   5.0747   5.1998   5.1998   5.1998   5.1998
     5.2270   5.2270   5.2270   5.2270   8.7591   8.7591   8.7591   8.7591
     9.0201   9.0201   9.0201   9.0201  10.0614  10.0614

     occupation numbers 
     1.0000   1.0000   1.0000   1.0000   1.0000   1.0000   1.0000   1.0000
     1.0000   1.0000   1.0000   1.0000   1.0000   1.0000   1.0000   1.0000
     1.0000   1.0000   1.0000   1.0000   1.0000   1.0000   1.0000   1.0000
     1.0000   1.0000   1.0000   1.0000   1.0000   1.0000   1.0000   1.0000
     1.0000   1.0000   1.0000   1.0000   1.0000   1.0000   1.0000   1.0000
     1.0000   1.0000   1.0000   1.0000   1.0000   1.0000   1.0000   1.0000
     1.0000   1.0000   1.0000   1.0000   0.0000   0.0000   0.0000   0.0000
     0.0000   0.0000   0.0000   0.0000   0.0000   0.0000

          k =-0.5000-0.5000-0.5000 ( 25064 PWs)   bands (ev):

   -79.7364 -79.7364 -79.7364 -79.7364 -45.9841 -45.9841 -45.9841 -45.9841
   -45.9838 -45.9838 -45.9838 -45.9838 -45.9838 -45.9838 -45.9838 -45.9838
    -1.8980  -1.8980  -1.8980  -1.8980  -1.1260  -1.1260  -1.1260  -1.1260
     1.6659   1.6659   1.6659   1.6659   1.6659   1.6659   1.6659   1.6659
     3.6537   3.6537   3.6537   3.6537   3.6537   3.6537   3.6537   3.6537
     5.0016   5.0016   5.0016   5.0016   5.2147   5.2147   5.2147   5.2147
     5.2147   5.2147   5.2147   5.2147   8.9989   8.9989   8.9989   8.9989
     8.9989   8.9989   8.9990   8.9990   9.4845   9.4845

     occupation numbers 
     1.0000   1.0000   1.0000   1.0000   1.0000   1.0000   1.0000   1.0000
     1.0000   1.0000   1.0000   1.0000   1.0000   1.0000   1.0000   1.0000
     1.0000   1.0000   1.0000   1.0000   1.0000   1.0000   1.0000   1.0000
     1.0000   1.0000   1.0000   1.0000   1.0000   1.0000   1.0000   1.0000
     1.0000   1.0000   1.0000   1.0000   1.0000   1.0000   1.0000   1.0000
     1.0000   1.0000   1.0000   1.0000   1.0000   1.0000   1.0000   1.0000
     1.0000   1.0000   1.0000   1.0000   0.0000   0.0000   0.0000   0.0000
     0.0000   0.0000   0.0000   0.0000   0.0000   0.0000

     the Fermi energy is     6.4791 ev

!    total energy              =   -1597.98224845 Ry
     estimated scf accuracy    <          2.0E-09 Ry
     smearing contrib. (-TS)   =      -0.00000005 Ry
     internal energy E=F+TS    =   -1597.98224840 Ry

     The total energy is F=E-TS. E is the sum of the following terms:
     one-electron contribution =    -914.52231941 Ry
     hartree contribution      =     490.64903862 Ry
     xc contribution           =    -168.72116202 Ry
     ewald contribution        =    -465.86684211 Ry
     one-center paw contrib.   =    -539.52096348 Ry
      -> PAW hartree energy AE =       0.72652193 Ry
      -> PAW hartree energy PS =      -0.72516494 Ry
      -> PAW xc energy AE      =     -31.65974985 Ry
      -> PAW xc energy PS      =       1.26392890 Ry
      -> total E_H with PAW    =     490.65039562 Ry
      -> total E_XC with PAW   =    -199.11698297 Ry

     convergence has been achieved in  15 iterations

     Forces acting on atoms (cartesian axes, Ry/au):

     atom    1 type  3   force =     0.00000001    0.00000001   -0.00000001
     atom    2 type  3   force =     0.00000001    0.00000001    0.00000001
     atom    3 type  3   force =     0.00000001   -0.00000001    0.00000001
     atom    4 type  3   force =     0.00000001   -0.00000001   -0.00000001
     atom    5 type  3   force =    -0.00000001    0.00000001    0.00000001
     atom    6 type  3   force =    -0.00000001    0.00000001   -0.00000001
     atom    7 type  3   force =    -0.00000001   -0.00000001   -0.00000001
     atom    8 type  3   force =    -0.00000001   -0.00000001    0.00000001
     atom    9 type  1   force =     0.00000000    0.00000000    0.00000000
     atom   10 type  1   force =     0.00000000    0.00000000    0.00000000
     atom   11 type  1   force =     0.00000000    0.00000000    0.00000000
     atom   12 type  1   force =     0.00000000    0.00000000    0.00000000
     atom   13 type  2   force =     0.00000000   -0.00441044   -0.00000000
     atom   14 type  2   force =     0.00000000    0.00000000    0.00440997
     atom   15 type  2   force =     0.00000000    0.00000000   -0.00440997
     atom   16 type  2   force =     0.00000000    0.00440997    0.00000000
     atom   17 type  2   force =    -0.00441044    0.00000000    0.00000000
     atom   18 type  2   force =     0.00441044    0.00000000    0.00000000
     atom   19 type  2   force =    -0.00000000   -0.00440997    0.00000000
     atom   20 type  2   force =     0.00000000    0.00000000    0.00440989
     atom   21 type  2   force =     0.00000000    0.00000000   -0.00440989
     atom   22 type  2   force =     0.00000000    0.00440989    0.00000000
     atom   23 type  2   force =    -0.00440989    0.00000000    0.00000000
     atom   24 type  2   force =     0.00440989    0.00000000    0.00000000
     atom   25 type  2   force =     0.00000000   -0.00440989    0.00000000
     atom   26 type  2   force =     0.00000000    0.00000000    0.00441044
     atom   27 type  2   force =     0.00000000    0.00000000   -0.00441044
     atom   28 type  2   force =     0.00000000    0.00440997    0.00000000
     atom   29 type  2   force =    -0.00440997   -0.00000000    0.00000000
     atom   30 type  2   force =     0.00440997    0.00000000    0.00000000
     atom   31 type  2   force =     0.00000000   -0.00440997    0.00000000
     atom   32 type  2   force =     0.00000000    0.00000000    0.00440997
     atom   33 type  2   force =     0.00000000    0.00000000   -0.00440997
     atom   34 type  2   force =    -0.00000000    0.00441044    0.00000000
     atom   35 type  2   force =    -0.00440997    0.00000000    0.00000000
     atom   36 type  2   force =     0.00440997   -0.00000000    0.00000000
     The non-local contrib.  to forces
     atom    1 type  3   force =    -0.00000017   -0.00000017    0.00000017
     atom    2 type  3   force =    -0.00000017   -0.00000017   -0.00000017
     atom    3 type  3   force =    -0.00000017    0.00000017   -0.00000017
     atom    4 type  3   force =    -0.00000017    0.00000017    0.00000017
     atom    5 type  3   force =     0.00000017   -0.00000017   -0.00000017
     atom    6 type  3   force =     0.00000017   -0.00000017    0.00000017
     atom    7 type  3   force =     0.00000017    0.00000017    0.00000017
     atom    8 type  3   force =     0.00000017    0.00000017   -0.00000017
     atom    9 type  1   force =     0.00000000    0.00000000    0.00000000
     atom   10 type  1   force =     0.00000000    0.00000000    0.00000000
     atom   11 type  1   force =     0.00000000    0.00000000    0.00000000
     atom   12 type  1   force =     0.00000000    0.00000000    0.00000000
     atom   13 type  2   force =     0.00000000    0.02143574    0.00000000
     atom   14 type  2   force =     0.00000000    0.00000000   -0.02143579
     atom   15 type  2   force =     0.00000000   -0.00000000    0.02143579
     atom   16 type  2   force =    -0.00000000   -0.02143579    0.00000000
     atom   17 type  2   force =     0.02143574    0.00000000    0.00000000
     atom   18 type  2   force =    -0.02143574   -0.00000000    0.00000000
     atom   19 type  2   force =    -0.00000000    0.02143579    0.00000000
     atom   20 type  2   force =     0.00000000   -0.00000000   -0.02143573
     atom   21 type  2   force =     0.00000000    0.00000000    0.02143573
     atom   22 type  2   force =    -0.00000000   -0.02143573    0.00000000
     atom   23 type  2   force =     0.02143573   -0.00000000    0.00000000
     atom   24 type  2   force =    -0.02143573    0.00000000   -0.00000000
     atom   25 type  2   force =     0.00000000    0.02143573   -0.00000000
     atom   26 type  2   force =     0.00000000   -0.00000000   -0.02143574
     atom   27 type  2   force =     0.00000000    0.00000000    0.02143574
     atom   28 type  2   force =     0.00000000   -0.02143579    0.00000000
     atom   29 type  2   force =     0.02143579   -0.00000000    0.00000000
     atom   30 type  2   force =    -0.02143579    0.00000000    0.00000000
     atom   31 type  2   force =     0.00000000    0.02143579   -0.00000000
     atom   32 type  2   force =     0.00000000    0.00000000   -0.02143579
     atom   33 type  2   force =     0.00000000    0.00000000    0.02143579
     atom   34 type  2   force =     0.00000000   -0.02143574    0.00000000
     atom   35 type  2   force =     0.02143579    0.00000000    0.00000000
     atom   36 type  2   force =    -0.02143579    0.00000000   -0.00000000
     The ionic contribution  to forces
     atom    1 type  3   force =     0.00000000    0.00000000   -0.00000000
     atom    2 type  3   force =     0.00000000    0.00000000    0.00000000
     atom    3 type  3   force =     0.00000000   -0.00000000   -0.00000000
     atom    4 type  3   force =     0.00000000   -0.00000000    0.00000000
     atom    5 type  3   force =    -0.00000000    0.00000000   -0.00000000
     atom    6 type  3   force =    -0.00000000    0.00000000    0.00000000
     atom    7 type  3   force =    -0.00000000   -0.00000000   -0.00000000
     atom    8 type  3   force =    -0.00000000   -0.00000000    0.00000000
     atom    9 type  1   force =    -0.00000000   -0.00000000   -0.00000000
     atom   10 type  1   force =    -0.00000000    0.00000000    0.00000000
     atom   11 type  1   force =     0.00000000   -0.00000000    0.00000000
     atom   12 type  1   force =     0.00000000    0.00000000   -0.00000000
     atom   13 type  2   force =     0.00000000   -3.00592336   -0.00000000
     atom   14 type  2   force =    -0.00000000   -0.00000000    3.00592336
     atom   15 type  2   force =     0.00000000   -0.00000000   -3.00592336
     atom   16 type  2   force =    -0.00000000    3.00592336   -0.00000000
     atom   17 type  2   force =    -3.00592336   -0.00000000   -0.00000000
     atom   18 type  2   force =     3.00592336    0.00000000   -0.00000000
     atom   19 type  2   force =     0.00000000   -3.00592336    0.00000000
     atom   20 type  2   force =    -0.00000000   -0.00000000    3.00592336
     atom   21 type  2   force =     0.00000000    0.00000000   -3.00592336
     atom   22 type  2   force =    -0.00000000    3.00592336   -0.00000000
     atom   23 type  2   force =    -3.00592336   -0.00000000    0.00000000
     atom   24 type  2   force =     3.00592336    0.00000000   -0.00000000
     atom   25 type  2   force =     0.00000000   -3.00592336    0.00000000
     atom   26 type  2   force =    -0.00000000   -0.00000000    3.00592336
     atom   27 type  2   force =    -0.00000000   -0.00000000   -3.00592336
     atom   28 type  2   force =    -0.00000000    3.00592336   -0.00000000
     atom   29 type  2   force =    -3.00592336   -0.00000000    0.00000000
     atom   30 type  2   force =     3.00592336    0.00000000   -0.00000000
     atom   31 type  2   force =     0.00000000   -3.00592336   -0.00000000
     atom   32 type  2   force =    -0.00000000   -0.00000000    3.00592336
     atom   33 type  2   force =    -0.00000000    0.00000000   -3.00592336
     atom   34 type  2   force =    -0.00000000    3.00592336   -0.00000000
     atom   35 type  2   force =    -3.00592336   -0.00000000   -0.00000000
     atom   36 type  2   force =     3.00592336   -0.00000000   -0.00000000
     The local contribution  to forces
     atom    1 type  3   force =    -0.00000009   -0.00000009    0.00000009
     atom    2 type  3   force =    -0.00000009   -0.00000009   -0.00000009
     atom    3 type  3   force =    -0.00000009    0.00000009   -0.00000009
     atom    4 type  3   force =    -0.00000009    0.00000009    0.00000009
     atom    5 type  3   force =     0.00000009   -0.00000009   -0.00000009
     atom    6 type  3   force =     0.00000009   -0.00000009    0.00000009
     atom    7 type  3   force =     0.00000009    0.00000009    0.00000009
     atom    8 type  3   force =     0.00000009    0.00000009   -0.00000009
     atom    9 type  1   force =     0.00000000    0.00000000    0.00000000
     atom   10 type  1   force =     0.00000000    0.00000000    0.00000000
     atom   11 type  1   force =     0.00000000    0.00000000    0.00000000
     atom   12 type  1   force =     0.00000000    0.00000000    0.00000000
     atom   13 type  2   force =    -0.00000000    2.98007979   -0.00000000
     atom   14 type  2   force =     0.00000000   -0.00000000   -2.98008195
     atom   15 type  2   force =    -0.00000000    0.00000000    2.98008195
     atom   16 type  2   force =     0.00000000   -2.98008195   -0.00000000
     atom   17 type  2   force =     2.98007979    0.00000000   -0.00000000
     atom   18 type  2   force =    -2.98007979   -0.00000000   -0.00000000
     atom   19 type  2   force =     0.00000000    2.98008195   -0.00000000
     atom   20 type  2   force =     0.00000000    0.00000000   -2.98008216
     atom   21 type  2   force =    -0.00000000   -0.00000000    2.98008216
     atom   22 type  2   force =     0.00000000   -2.98008216    0.00000000
     atom   23 type  2   force =     2.98008216    0.00000000   -0.00000000
     atom   24 type  2   force =    -2.98008216   -0.00000000    0.00000000
     atom   25 type  2   force =    -0.00000000    2.98008216   -0.00000000
     atom   26 type  2   force =     0.00000000   -0.00000000   -2.98007979
     atom   27 type  2   force =     0.00000000    0.00000000    2.98007979
     atom   28 type  2   force =    -0.00000000   -2.98008195    0.00000000
     atom   29 type  2   force =     2.98008195   -0.00000000   -0.00000000
     atom   30 type  2   force =    -2.98008195    0.00000000    0.00000000
     atom   31 type  2   force =     0.00000000    2.98008195   -0.00000000
     atom   32 type  2   force =     0.00000000    0.00000000   -2.98008195
     atom   33 type  2   force =    -0.00000000   -0.00000000    2.98008195
     atom   34 type  2   force =     0.00000000   -2.98007979   -0.00000000
     atom   35 type  2   force =     2.98008195    0.00000000   -0.00000000
     atom   36 type  2   force =    -2.98008195   -0.00000000    0.00000000
     The core correction contribution to forces
     atom    1 type  3   force =     0.00000002    0.00000002   -0.00000002
     atom    2 type  3   force =     0.00000002    0.00000002    0.00000002
     atom    3 type  3   force =     0.00000002   -0.00000002    0.00000002
     atom    4 type  3   force =     0.00000002   -0.00000002   -0.00000002
     atom    5 type  3   force =    -0.00000002    0.00000002    0.00000002
     atom    6 type  3   force =    -0.00000002    0.00000002   -0.00000002
     atom    7 type  3   force =    -0.00000002   -0.00000002   -0.00000002
     atom    8 type  3   force =    -0.00000002   -0.00000002    0.00000002
     atom    9 type  1   force =     0.00000000    0.00000000    0.00000000
     atom   10 type  1   force =     0.00000000   -0.00000000   -0.00000000
     atom   11 type  1   force =    -0.00000000    0.00000000   -0.00000000
     atom   12 type  1   force =    -0.00000000   -0.00000000    0.00000000
     atom   13 type  2   force =     0.00000000    0.00000000    0.00000000
     atom   14 type  2   force =     0.00000000    0.00000000    0.00000000
     atom   15 type  2   force =     0.00000000    0.00000000    0.00000000
     atom   16 type  2   force =     0.00000000    0.00000000    0.00000000
     atom   17 type  2   force =     0.00000000    0.00000000    0.00000000
     atom   18 type  2   force =     0.00000000    0.00000000    0.00000000
     atom   19 type  2   force =     0.00000000    0.00000000    0.00000000
     atom   20 type  2   force =     0.00000000    0.00000000    0.00000000
     atom   21 type  2   force =     0.00000000    0.00000000    0.00000000
     atom   22 type  2   force =     0.00000000    0.00000000    0.00000000
     atom   23 type  2   force =     0.00000000    0.00000000    0.00000000
     atom   24 type  2   force =     0.00000000    0.00000000    0.00000000
     atom   25 type  2   force =     0.00000000    0.00000000    0.00000000
     atom   26 type  2   force =     0.00000000    0.00000000    0.00000000
     atom   27 type  2   force =     0.00000000    0.00000000    0.00000000
     atom   28 type  2   force =     0.00000000    0.00000000    0.00000000
     atom   29 type  2   force =     0.00000000    0.00000000    0.00000000
     atom   30 type  2   force =     0.00000000    0.00000000    0.00000000
     atom   31 type  2   force =     0.00000000    0.00000000    0.00000000
     atom   32 type  2   force =     0.00000000    0.00000000    0.00000000
     atom   33 type  2   force =     0.00000000    0.00000000    0.00000000
     atom   34 type  2   force =     0.00000000    0.00000000    0.00000000
     atom   35 type  2   force =     0.00000000    0.00000000    0.00000000
     atom   36 type  2   force =     0.00000000    0.00000000    0.00000000
     The Hubbard contrib.    to forces
     atom    1 type  3   force =     0.00000000    0.00000000    0.00000000
     atom    2 type  3   force =     0.00000000    0.00000000    0.00000000
     atom    3 type  3   force =     0.00000000    0.00000000    0.00000000
     atom    4 type  3   force =     0.00000000    0.00000000    0.00000000
     atom    5 type  3   force =     0.00000000    0.00000000    0.00000000
     atom    6 type  3   force =     0.00000000    0.00000000    0.00000000
     atom    7 type  3   force =     0.00000000    0.00000000    0.00000000
     atom    8 type  3   force =     0.00000000    0.00000000    0.00000000
     atom    9 type  1   force =     0.00000000    0.00000000    0.00000000
     atom   10 type  1   force =     0.00000000    0.00000000    0.00000000
     atom   11 type  1   force =     0.00000000    0.00000000    0.00000000
     atom   12 type  1   force =     0.00000000    0.00000000    0.00000000
     atom   13 type  2   force =     0.00000000    0.00000000    0.00000000
     atom   14 type  2   force =     0.00000000    0.00000000    0.00000000
     atom   15 type  2   force =     0.00000000    0.00000000    0.00000000
     atom   16 type  2   force =     0.00000000    0.00000000    0.00000000
     atom   17 type  2   force =     0.00000000    0.00000000    0.00000000
     atom   18 type  2   force =     0.00000000    0.00000000    0.00000000
     atom   19 type  2   force =     0.00000000    0.00000000    0.00000000
     atom   20 type  2   force =     0.00000000    0.00000000    0.00000000
     atom   21 type  2   force =     0.00000000    0.00000000    0.00000000
     atom   22 type  2   force =     0.00000000    0.00000000    0.00000000
     atom   23 type  2   force =     0.00000000    0.00000000    0.00000000
     atom   24 type  2   force =     0.00000000    0.00000000    0.00000000
     atom   25 type  2   force =     0.00000000    0.00000000    0.00000000
     atom   26 type  2   force =     0.00000000    0.00000000    0.00000000
     atom   27 type  2   force =     0.00000000    0.00000000    0.00000000
     atom   28 type  2   force =     0.00000000    0.00000000    0.00000000
     atom   29 type  2   force =     0.00000000    0.00000000    0.00000000
     atom   30 type  2   force =     0.00000000    0.00000000    0.00000000
     atom   31 type  2   force =     0.00000000    0.00000000    0.00000000
     atom   32 type  2   force =     0.00000000    0.00000000    0.00000000
     atom   33 type  2   force =     0.00000000    0.00000000    0.00000000
     atom   34 type  2   force =     0.00000000    0.00000000    0.00000000
     atom   35 type  2   force =     0.00000000    0.00000000    0.00000000
     atom   36 type  2   force =     0.00000000    0.00000000    0.00000000
     The SCF correction term to forces
     atom    1 type  3   force =     0.00000025    0.00000025   -0.00000025
     atom    2 type  3   force =     0.00000025    0.00000025    0.00000025
     atom    3 type  3   force =     0.00000025   -0.00000025    0.00000025
     atom    4 type  3   force =     0.00000025   -0.00000025   -0.00000025
     atom    5 type  3   force =    -0.00000025    0.00000025    0.00000025
     atom    6 type  3   force =    -0.00000025    0.00000025   -0.00000025
     atom    7 type  3   force =    -0.00000025   -0.00000025   -0.00000025
     atom    8 type  3   force =    -0.00000025   -0.00000025    0.00000025
     atom    9 type  1   force =     0.00000000   -0.00000000    0.00000000
     atom   10 type  1   force =    -0.00000000   -0.00000000   -0.00000000
     atom   11 type  1   force =    -0.00000000   -0.00000000   -0.00000000
     atom   12 type  1   force =     0.00000000   -0.00000000    0.00000000
     atom   13 type  2   force =    -0.00000000   -0.00000261   -0.00000000
     atom   14 type  2   force =     0.00000000    0.00000000    0.00000436
     atom   15 type  2   force =    -0.00000000    0.00000000   -0.00000436
     atom   16 type  2   force =    -0.00000000    0.00000436   -0.00000000
     atom   17 type  2   force =    -0.00000261    0.00000000   -0.00000000
     atom   18 type  2   force =     0.00000261   -0.00000000   -0.00000000
     atom   19 type  2   force =     0.00000000   -0.00000436   -0.00000000
     atom   20 type  2   force =    -0.00000000   -0.00000000    0.00000442
     atom   21 type  2   force =    -0.00000000    0.00000000   -0.00000442
     atom   22 type  2   force =     0.00000000    0.00000442   -0.00000000
     atom   23 type  2   force =    -0.00000442   -0.00000000   -0.00000000
     atom   24 type  2   force =     0.00000442    0.00000000   -0.00000000
     atom   25 type  2   force =     0.00000000   -0.00000442   -0.00000000
     atom   26 type  2   force =    -0.00000000    0.00000000    0.00000261
     atom   27 type  2   force =    -0.00000000    0.00000000   -0.00000261
     atom   28 type  2   force =     0.00000000    0.00000436   -0.00000000
     atom   29 type  2   force =    -0.00000436   -0.00000000   -0.00000000
     atom   30 type  2   force =     0.00000436    0.00000000    0.00000000
     atom   31 type  2   force =    -0.00000000   -0.00000436   -0.00000000
     atom   32 type  2   force =     0.00000000    0.00000000    0.00000436
     atom   33 type  2   force =    -0.00000000   -0.00000000   -0.00000436
     atom   34 type  2   force =    -0.00000000    0.00000261   -0.00000000
     atom   35 type  2   force =    -0.00000436   -0.00000000   -0.00000000
     atom   36 type  2   force =     0.00000436    0.00000000   -0.00000000

     Total force =     0.021605     Total SCF correction =     0.000020


     Computing stress (Cartesian axis) and pressure

          total   stress  (Ry/bohr**3)                   (kbar)     P=        0.07
   0.00000047   0.00000000   0.00000000            0.07        0.00        0.00
   0.00000000   0.00000047   0.00000000            0.00        0.07        0.00
   0.00000000   0.00000000   0.00000047            0.00        0.00        0.07

     kinetic stress (kbar)  17234.50      0.00      0.00
                                0.00  17234.50      0.00
                                0.00      0.00  17234.50

     local   stress (kbar)  -1925.36     -0.00     -0.00
                               -0.00  -1925.36      0.00
                               -0.00      0.00  -1925.36

     nonloc. stress (kbar) -11918.68      0.00      0.00
                                0.00 -11918.68      0.00
                                0.00      0.00 -11918.68

     hartree stress (kbar)  13890.62     -0.00      0.00
                               -0.00  13890.62     -0.00
                                0.00     -0.00  13890.62

     exc-cor stress (kbar)   -633.29     -0.00     -0.00
                               -0.00   -633.29     -0.00
                               -0.00     -0.00   -633.29

     corecor stress (kbar)  -3458.71     -0.00      0.00
                               -0.00  -3458.71      0.00
                                0.00      0.00  -3458.71

     ewald   stress (kbar) -13189.02     -0.00      0.00
                               -0.00 -13189.02      0.00
                                0.00      0.00 -13189.02

     hubbard stress (kbar)      0.00      0.00      0.00
                                0.00      0.00      0.00
                                0.00      0.00      0.00

     DFT-D   stress (kbar)      0.00      0.00      0.00
                                0.00      0.00      0.00
                                0.00      0.00      0.00

     XDM     stress (kbar)      0.00      0.00      0.00
                                0.00      0.00      0.00
                                0.00      0.00      0.00

     dft-nl  stress (kbar)      0.00      0.00      0.00
                                0.00      0.00      0.00
                                0.00      0.00      0.00

     TS-vdW  stress (kbar)      0.00      0.00      0.00
                                0.00      0.00      0.00
                                0.00      0.00      0.00

     MDB     stress (kbar)      0.00      0.00      0.00
                                0.00      0.00      0.00
                                0.00      0.00      0.00

     3D-RISM stress (kbar)      0.00      0.00      0.00
                                0.00      0.00      0.00
                                0.00      0.00      0.00


     Writing all to output data dir ./out/fe-kp-6.save/

     init_run     :      1.90s CPU      2.25s WALL (       1 calls)
     electrons    :     32.92s CPU     39.17s WALL (       1 calls)
     forces       :      0.70s CPU      0.83s WALL (       1 calls)
     stress       :      4.26s CPU      4.59s WALL (       1 calls)

     Called by init_run:
     wfcinit      :      0.93s CPU      1.04s WALL (       1 calls)
     wfcinit:atom :      0.01s CPU      0.02s WALL (      10 calls)
     wfcinit:wfcr :      0.85s CPU      0.96s WALL (      10 calls)
     potinit      :      0.35s CPU      0.42s WALL (       1 calls)
     hinit0       :      0.23s CPU      0.26s WALL (       1 calls)

     Called by electrons:
     c_bands      :     25.09s CPU     28.96s WALL (      15 calls)
     sum_band     :      5.03s CPU      6.19s WALL (      15 calls)
     v_of_rho     :      0.75s CPU      0.88s WALL (      16 calls)
     v_h          :      0.07s CPU      0.09s WALL (      16 calls)
     v_xc         :      0.77s CPU      0.89s WALL (      18 calls)
     newd         :      1.41s CPU      1.87s WALL (      16 calls)
     PAW_pot      :      0.57s CPU      1.15s WALL (      16 calls)
     mix_rho      :      0.10s CPU      0.13s WALL (      15 calls)

     Called by c_bands:
     init_us_2    :      0.48s CPU      0.51s WALL (     330 calls)
     init_us_2:cp :      0.48s CPU      0.51s WALL (     330 calls)
     cegterg      :     23.89s CPU     26.76s WALL (     150 calls)

     Called by sum_band:
     sum_band:wei :      0.01s CPU      0.01s WALL (      15 calls)
     sum_band:loo :      3.37s CPU      3.80s WALL (      15 calls)
     sum_band:buf :      0.07s CPU      0.08s WALL (     150 calls)
     sum_band:ini :      0.19s CPU      0.20s WALL (     150 calls)
     sum_band:cal :      0.58s CPU      0.66s WALL (     150 calls)
     sum_band:bec :      0.02s CPU      0.02s WALL (     150 calls)
     addusdens    :      1.55s CPU      2.20s WALL (      15 calls)
                                        0.00s GPU  (      15 calls)
     addusd:skk   :      0.08s CPU      0.08s WALL (      45 calls)
                                        0.00s GPU  (      45 calls)

     Called by *egterg:
     cdiaghg      :      3.01s CPU      3.17s WALL (     672 calls)
     cegterg:over :      1.20s CPU      1.28s WALL (     522 calls)
     cegterg:upda :      0.69s CPU      0.71s WALL (     522 calls)
     cegterg:last :      1.49s CPU      1.50s WALL (     323 calls)
     h_psi        :     16.09s CPU     18.68s WALL (     682 calls)
     s_psi        :      1.32s CPU      1.34s WALL (     682 calls)
     g_psi        :      0.04s CPU      0.04s WALL (     522 calls)

     Called by h_psi:
     h_psi:calbec :      2.05s CPU      2.36s WALL (     682 calls)
     vloc_psi     :     12.47s CPU     14.70s WALL (     682 calls)
     add_vuspsi   :      1.42s CPU      1.46s WALL (     682 calls)

     General routines
     calbec       :      2.79s CPU      3.22s WALL (     882 calls)
     fft          :      0.57s CPU      0.73s WALL (     231 calls)
     ffts         :      0.16s CPU      0.17s WALL (      31 calls)
     fftw         :     12.26s CPU     14.41s WALL (   60528 calls)
     interpolate  :      0.20s CPU      0.21s WALL (      16 calls)

     Parallel routines

     PAW routines
     PAW_pot      :      0.57s CPU      1.15s WALL (      16 calls)
     PAW_symme    :      0.01s CPU      0.02s WALL (      31 calls)

     PWSCF        :     40.18s CPU     47.91s WALL


   This run was terminated on:  22:32:51  13Jun2025            

=------------------------------------------------------------------------------=
   JOB DONE.
=------------------------------------------------------------------------------=
