
     Program PWSCF v.7.2 starts on 13Jun2025 at 22:24: 5 

     This program is part of the open-source Quantum ESPRESSO suite
     for quantum simulation of materials; please cite
         "P. Giannozzi et al., J. Phys.:Condens. Matter 21 395502 (2009);
         "P. Giannozzi et al., J. Phys.:Condens. Matter 29 465901 (2017);
         "P. Giannozzi et al., J. Chem. Phys. 152 154105 (2020);
          URL http://www.quantum-espresso.org", 
     in publications or presentations arising from this work. More details at
     http://www.quantum-espresso.org/quote

     Parallel version (MPI & OpenMP), running on      64 processor cores
     Number of MPI processes:                64
     Threads/MPI process:                     1

     MPI processes distributed on     1 nodes
     241369 MiB available memory on the printing compute node when the environment starts

     Reading input from fe_kp_10.in

     Current dimensions of program PWSCF are:
     Max number of different atomic species (ntypx) = 10
     Max number of k-points (npk) =  40000
     Max angular momentum in pseudopotentials (lmaxx) =  4
     file Fe.pbesol-spn-kjpaw_psl.0.2.1.UPF: wavefunction(s)  3D renormalized
     file Mg.pbesol-n-kjpaw_psl.0.3.0.UPF: wavefunction(s)  3S renormalized
     Found identity + (  0.0000  0.5000 -0.5000) symmetry
     This is a supercell, fractional translations are disabled
     Message from routine setup:
     using ibrav=0 with symmetry is DISCOURAGED, use correct ibrav instead

     K-points division:     npool     =       2
     R & G space division:  proc/nbgrp/npool/nimage =      32
     Subspace diagonalization in iterative solution of the eigenvalue problem:
     a serial algorithm will be used


     Parallelization info
     --------------------
     sticks:   dense  smooth     PW     G-vecs:    dense   smooth      PW
     Min         387     129     35                32439     6247     890
     Max         388     130     37                32443     6250     893
     Sum       12393    4149   1125              1038085   199949   28545

     Using Slab Decomposition



     bravais-lattice index     =            0
     lattice parameter (alat)  =      12.0093  a.u.
     unit-cell volume          =    1732.0312 (a.u.)^3
     number of atoms/cell      =           36
     number of atomic types    =            3
     number of electrons       =       104.00
     number of Kohn-Sham states=           62
     kinetic-energy cutoff     =      90.0000  Ry
     charge density cutoff     =    1080.0000  Ry
     scf convergence threshold =      7.2E-09
     mixing beta               =       0.4000
     number of iterations used =            8  plain     mixing
     Exchange-correlation= SLA  PW   PSX  PSC
                           (   1   4  10   8   0   0   0)

     celldm(1)=  12.009324  celldm(2)=   0.000000  celldm(3)=   0.000000
     celldm(4)=   0.000000  celldm(5)=   0.000000  celldm(6)=   0.000000

     crystal axes: (cart. coord. in units of alat)
               a(1) = (   1.000000   0.000000   0.000000 )  
               a(2) = (   0.000000   1.000000   0.000000 )  
               a(3) = (   0.000000   0.000000   1.000000 )  

     reciprocal axes: (cart. coord. in units 2 pi/alat)
               b(1) = (  1.000000  0.000000  0.000000 )  
               b(2) = (  0.000000  1.000000  0.000000 )  
               b(3) = (  0.000000  0.000000  1.000000 )  


     PseudoPot. # 1 for Fe read from file:
     ./pseudo/Fe.pbesol-spn-kjpaw_psl.0.2.1.UPF
     MD5 check sum: 4d7ec5aa2156491519a4322664fbbf52
     Pseudo is Projector augmented-wave + core cor, Zval = 16.0
     Generated using "atomic" code by A. Dal Corso  v.6.0 svn rev. 13079
     Shape of augmentation charge: PSQ
     Using radial grid of 1191 points,  6 beta functions with: 
                l(1) =   0
                l(2) =   0
                l(3) =   1
                l(4) =   1
                l(5) =   2
                l(6) =   2
     Q(r) pseudized with 0 coefficients 


     PseudoPot. # 2 for H  read from file:
     ./pseudo/H.pbesol-rrkjus_psl.1.0.0.UPF
     MD5 check sum: 0324ed591cc0147dc3d88cad0d33f665
     Pseudo is Ultrasoft, Zval =  1.0
     Generated using "atomic" code by A. Dal Corso  v.6.0 svn rev. 13079
     Using radial grid of  929 points,  2 beta functions with: 
                l(1) =   0
                l(2) =   0
     Q(r) pseudized with 0 coefficients 


     PseudoPot. # 3 for Mg read from file:
     ./pseudo/Mg.pbesol-n-kjpaw_psl.0.3.0.UPF
     MD5 check sum: a6c8d2ff726a5f7005dea00130d82930
     Pseudo is Projector augmented-wave + core cor, Zval =  2.0
     Generated using "atomic" code by A. Dal Corso  v.6.1 svn rev. 13369
     Shape of augmentation charge: PSQ
     Using radial grid of 1129 points,  4 beta functions with: 
                l(1) =   0
                l(2) =   0
                l(3) =   1
                l(4) =   1
     Q(r) pseudized with 0 coefficients 


     atomic species   valence    mass     pseudopotential
        Fe            16.00    55.84500     Fe( 1.00)
        H              1.00     1.00794     H ( 1.00)
        Mg             2.00    24.30500     Mg( 1.00)

     48 Sym. Ops., with inversion, found


                                    s                        frac. trans.

      isym =  1     identity                                     

 cryst.   s( 1) = (     1          0          0      )
                  (     0          1          0      )
                  (     0          0          1      )

 cart.    s( 1) = (  1.0000000  0.0000000  0.0000000 )
                  (  0.0000000  1.0000000  0.0000000 )
                  (  0.0000000  0.0000000  1.0000000 )


      isym =  2     180 deg rotation - cart. axis [0,0,1]        

 cryst.   s( 2) = (    -1          0          0      )
                  (     0         -1          0      )
                  (     0          0          1      )

 cart.    s( 2) = ( -1.0000000  0.0000000  0.0000000 )
                  (  0.0000000 -1.0000000  0.0000000 )
                  (  0.0000000  0.0000000  1.0000000 )


      isym =  3     180 deg rotation - cart. axis [0,1,0]        

 cryst.   s( 3) = (    -1          0          0      )
                  (     0          1          0      )
                  (     0          0         -1      )

 cart.    s( 3) = ( -1.0000000  0.0000000  0.0000000 )
                  (  0.0000000  1.0000000  0.0000000 )
                  (  0.0000000  0.0000000 -1.0000000 )


      isym =  4     180 deg rotation - cart. axis [1,0,0]        

 cryst.   s( 4) = (     1          0          0      )
                  (     0         -1          0      )
                  (     0          0         -1      )

 cart.    s( 4) = (  1.0000000  0.0000000  0.0000000 )
                  (  0.0000000 -1.0000000  0.0000000 )
                  (  0.0000000  0.0000000 -1.0000000 )


      isym =  5     180 deg rotation - cart. axis [1,1,0]        

 cryst.   s( 5) = (     0          1          0      )
                  (     1          0          0      )
                  (     0          0         -1      )

 cart.    s( 5) = (  0.0000000  1.0000000  0.0000000 )
                  (  1.0000000  0.0000000  0.0000000 )
                  (  0.0000000  0.0000000 -1.0000000 )


      isym =  6     180 deg rotation - cart. axis [1,-1,0]       

 cryst.   s( 6) = (     0         -1          0      )
                  (    -1          0          0      )
                  (     0          0         -1      )

 cart.    s( 6) = (  0.0000000 -1.0000000  0.0000000 )
                  ( -1.0000000  0.0000000  0.0000000 )
                  (  0.0000000  0.0000000 -1.0000000 )


      isym =  7      90 deg rotation - cart. axis [0,0,-1]       

 cryst.   s( 7) = (     0         -1          0      )
                  (     1          0          0      )
                  (     0          0          1      )

 cart.    s( 7) = (  0.0000000  1.0000000  0.0000000 )
                  ( -1.0000000  0.0000000  0.0000000 )
                  (  0.0000000  0.0000000  1.0000000 )


      isym =  8      90 deg rotation - cart. axis [0,0,1]        

 cryst.   s( 8) = (     0          1          0      )
                  (    -1          0          0      )
                  (     0          0          1      )

 cart.    s( 8) = (  0.0000000 -1.0000000  0.0000000 )
                  (  1.0000000  0.0000000  0.0000000 )
                  (  0.0000000  0.0000000  1.0000000 )


      isym =  9     180 deg rotation - cart. axis [1,0,1]        

 cryst.   s( 9) = (     0          0          1      )
                  (     0         -1          0      )
                  (     1          0          0      )

 cart.    s( 9) = (  0.0000000  0.0000000  1.0000000 )
                  (  0.0000000 -1.0000000  0.0000000 )
                  (  1.0000000  0.0000000  0.0000000 )


      isym = 10     180 deg rotation - cart. axis [-1,0,1]       

 cryst.   s(10) = (     0          0         -1      )
                  (     0         -1          0      )
                  (    -1          0          0      )

 cart.    s(10) = (  0.0000000  0.0000000 -1.0000000 )
                  (  0.0000000 -1.0000000  0.0000000 )
                  ( -1.0000000  0.0000000  0.0000000 )


      isym = 11      90 deg rotation - cart. axis [0,1,0]        

 cryst.   s(11) = (     0          0         -1      )
                  (     0          1          0      )
                  (     1          0          0      )

 cart.    s(11) = (  0.0000000  0.0000000  1.0000000 )
                  (  0.0000000  1.0000000  0.0000000 )
                  ( -1.0000000  0.0000000  0.0000000 )


      isym = 12      90 deg rotation - cart. axis [0,-1,0]       

 cryst.   s(12) = (     0          0          1      )
                  (     0          1          0      )
                  (    -1          0          0      )

 cart.    s(12) = (  0.0000000  0.0000000 -1.0000000 )
                  (  0.0000000  1.0000000  0.0000000 )
                  (  1.0000000  0.0000000  0.0000000 )


      isym = 13     180 deg rotation - cart. axis [0,1,1]        

 cryst.   s(13) = (    -1          0          0      )
                  (     0          0          1      )
                  (     0          1          0      )

 cart.    s(13) = ( -1.0000000  0.0000000  0.0000000 )
                  (  0.0000000  0.0000000  1.0000000 )
                  (  0.0000000  1.0000000  0.0000000 )


      isym = 14     180 deg rotation - cart. axis [0,1,-1]       

 cryst.   s(14) = (    -1          0          0      )
                  (     0          0         -1      )
                  (     0         -1          0      )

 cart.    s(14) = ( -1.0000000  0.0000000  0.0000000 )
                  (  0.0000000  0.0000000 -1.0000000 )
                  (  0.0000000 -1.0000000  0.0000000 )


      isym = 15      90 deg rotation - cart. axis [-1,0,0]       

 cryst.   s(15) = (     1          0          0      )
                  (     0          0         -1      )
                  (     0          1          0      )

 cart.    s(15) = (  1.0000000  0.0000000  0.0000000 )
                  (  0.0000000  0.0000000  1.0000000 )
                  (  0.0000000 -1.0000000  0.0000000 )


      isym = 16      90 deg rotation - cart. axis [1,0,0]        

 cryst.   s(16) = (     1          0          0      )
                  (     0          0          1      )
                  (     0         -1          0      )

 cart.    s(16) = (  1.0000000  0.0000000  0.0000000 )
                  (  0.0000000  0.0000000 -1.0000000 )
                  (  0.0000000  1.0000000  0.0000000 )


      isym = 17     120 deg rotation - cart. axis [-1,-1,-1]     

 cryst.   s(17) = (     0          0          1      )
                  (     1          0          0      )
                  (     0          1          0      )

 cart.    s(17) = (  0.0000000  1.0000000  0.0000000 )
                  (  0.0000000  0.0000000  1.0000000 )
                  (  1.0000000  0.0000000  0.0000000 )


      isym = 18     120 deg rotation - cart. axis [-1,1,1]       

 cryst.   s(18) = (     0          0         -1      )
                  (    -1          0          0      )
                  (     0          1          0      )

 cart.    s(18) = (  0.0000000 -1.0000000  0.0000000 )
                  (  0.0000000  0.0000000  1.0000000 )
                  ( -1.0000000  0.0000000  0.0000000 )


      isym = 19     120 deg rotation - cart. axis [1,1,-1]       

 cryst.   s(19) = (     0          0         -1      )
                  (     1          0          0      )
                  (     0         -1          0      )

 cart.    s(19) = (  0.0000000  1.0000000  0.0000000 )
                  (  0.0000000  0.0000000 -1.0000000 )
                  ( -1.0000000  0.0000000  0.0000000 )


      isym = 20     120 deg rotation - cart. axis [1,-1,1]       

 cryst.   s(20) = (     0          0          1      )
                  (    -1          0          0      )
                  (     0         -1          0      )

 cart.    s(20) = (  0.0000000 -1.0000000  0.0000000 )
                  (  0.0000000  0.0000000 -1.0000000 )
                  (  1.0000000  0.0000000  0.0000000 )


      isym = 21     120 deg rotation - cart. axis [1,1,1]        

 cryst.   s(21) = (     0          1          0      )
                  (     0          0          1      )
                  (     1          0          0      )

 cart.    s(21) = (  0.0000000  0.0000000  1.0000000 )
                  (  1.0000000  0.0000000  0.0000000 )
                  (  0.0000000  1.0000000  0.0000000 )


      isym = 22     120 deg rotation - cart. axis [-1,1,-1]      

 cryst.   s(22) = (     0         -1          0      )
                  (     0          0         -1      )
                  (     1          0          0      )

 cart.    s(22) = (  0.0000000  0.0000000  1.0000000 )
                  ( -1.0000000  0.0000000  0.0000000 )
                  (  0.0000000 -1.0000000  0.0000000 )


      isym = 23     120 deg rotation - cart. axis [1,-1,-1]      

 cryst.   s(23) = (     0         -1          0      )
                  (     0          0          1      )
                  (    -1          0          0      )

 cart.    s(23) = (  0.0000000  0.0000000 -1.0000000 )
                  ( -1.0000000  0.0000000  0.0000000 )
                  (  0.0000000  1.0000000  0.0000000 )


      isym = 24     120 deg rotation - cart. axis [-1,-1,1]      

 cryst.   s(24) = (     0          1          0      )
                  (     0          0         -1      )
                  (    -1          0          0      )

 cart.    s(24) = (  0.0000000  0.0000000 -1.0000000 )
                  (  1.0000000  0.0000000  0.0000000 )
                  (  0.0000000 -1.0000000  0.0000000 )


      isym = 25     inversion                                    

 cryst.   s(25) = (    -1          0          0      )
                  (     0         -1          0      )
                  (     0          0         -1      )

 cart.    s(25) = ( -1.0000000  0.0000000  0.0000000 )
                  (  0.0000000 -1.0000000  0.0000000 )
                  (  0.0000000  0.0000000 -1.0000000 )


      isym = 26     inv. 180 deg rotation - cart. axis [0,0,1]   

 cryst.   s(26) = (     1          0          0      )
                  (     0          1          0      )
                  (     0          0         -1      )

 cart.    s(26) = (  1.0000000  0.0000000  0.0000000 )
                  (  0.0000000  1.0000000  0.0000000 )
                  (  0.0000000  0.0000000 -1.0000000 )


      isym = 27     inv. 180 deg rotation - cart. axis [0,1,0]   

 cryst.   s(27) = (     1          0          0      )
                  (     0         -1          0      )
                  (     0          0          1      )

 cart.    s(27) = (  1.0000000  0.0000000  0.0000000 )
                  (  0.0000000 -1.0000000  0.0000000 )
                  (  0.0000000  0.0000000  1.0000000 )


      isym = 28     inv. 180 deg rotation - cart. axis [1,0,0]   

 cryst.   s(28) = (    -1          0          0      )
                  (     0          1          0      )
                  (     0          0          1      )

 cart.    s(28) = ( -1.0000000  0.0000000  0.0000000 )
                  (  0.0000000  1.0000000  0.0000000 )
                  (  0.0000000  0.0000000  1.0000000 )


      isym = 29     inv. 180 deg rotation - cart. axis [1,1,0]   

 cryst.   s(29) = (     0         -1          0      )
                  (    -1          0          0      )
                  (     0          0          1      )

 cart.    s(29) = (  0.0000000 -1.0000000  0.0000000 )
                  ( -1.0000000  0.0000000  0.0000000 )
                  (  0.0000000  0.0000000  1.0000000 )


      isym = 30     inv. 180 deg rotation - cart. axis [1,-1,0]  

 cryst.   s(30) = (     0          1          0      )
                  (     1          0          0      )
                  (     0          0          1      )

 cart.    s(30) = (  0.0000000  1.0000000  0.0000000 )
                  (  1.0000000  0.0000000  0.0000000 )
                  (  0.0000000  0.0000000  1.0000000 )


      isym = 31     inv.  90 deg rotation - cart. axis [0,0,-1]  

 cryst.   s(31) = (     0          1          0      )
                  (    -1          0          0      )
                  (     0          0         -1      )

 cart.    s(31) = (  0.0000000 -1.0000000  0.0000000 )
                  (  1.0000000  0.0000000  0.0000000 )
                  (  0.0000000  0.0000000 -1.0000000 )


      isym = 32     inv.  90 deg rotation - cart. axis [0,0,1]   

 cryst.   s(32) = (     0         -1          0      )
                  (     1          0          0      )
                  (     0          0         -1      )

 cart.    s(32) = (  0.0000000  1.0000000  0.0000000 )
                  ( -1.0000000  0.0000000  0.0000000 )
                  (  0.0000000  0.0000000 -1.0000000 )


      isym = 33     inv. 180 deg rotation - cart. axis [1,0,1]   

 cryst.   s(33) = (     0          0         -1      )
                  (     0          1          0      )
                  (    -1          0          0      )

 cart.    s(33) = (  0.0000000  0.0000000 -1.0000000 )
                  (  0.0000000  1.0000000  0.0000000 )
                  ( -1.0000000  0.0000000  0.0000000 )


      isym = 34     inv. 180 deg rotation - cart. axis [-1,0,1]  

 cryst.   s(34) = (     0          0          1      )
                  (     0          1          0      )
                  (     1          0          0      )

 cart.    s(34) = (  0.0000000  0.0000000  1.0000000 )
                  (  0.0000000  1.0000000  0.0000000 )
                  (  1.0000000  0.0000000  0.0000000 )


      isym = 35     inv.  90 deg rotation - cart. axis [0,1,0]   

 cryst.   s(35) = (     0          0          1      )
                  (     0         -1          0      )
                  (    -1          0          0      )

 cart.    s(35) = (  0.0000000  0.0000000 -1.0000000 )
                  (  0.0000000 -1.0000000  0.0000000 )
                  (  1.0000000  0.0000000  0.0000000 )


      isym = 36     inv.  90 deg rotation - cart. axis [0,-1,0]  

 cryst.   s(36) = (     0          0         -1      )
                  (     0         -1          0      )
                  (     1          0          0      )

 cart.    s(36) = (  0.0000000  0.0000000  1.0000000 )
                  (  0.0000000 -1.0000000  0.0000000 )
                  ( -1.0000000  0.0000000  0.0000000 )


      isym = 37     inv. 180 deg rotation - cart. axis [0,1,1]   

 cryst.   s(37) = (     1          0          0      )
                  (     0          0         -1      )
                  (     0         -1          0      )

 cart.    s(37) = (  1.0000000  0.0000000  0.0000000 )
                  (  0.0000000  0.0000000 -1.0000000 )
                  (  0.0000000 -1.0000000  0.0000000 )


      isym = 38     inv. 180 deg rotation - cart. axis [0,1,-1]  

 cryst.   s(38) = (     1          0          0      )
                  (     0          0          1      )
                  (     0          1          0      )

 cart.    s(38) = (  1.0000000  0.0000000  0.0000000 )
                  (  0.0000000  0.0000000  1.0000000 )
                  (  0.0000000  1.0000000  0.0000000 )


      isym = 39     inv.  90 deg rotation - cart. axis [-1,0,0]  

 cryst.   s(39) = (    -1          0          0      )
                  (     0          0          1      )
                  (     0         -1          0      )

 cart.    s(39) = ( -1.0000000  0.0000000  0.0000000 )
                  (  0.0000000  0.0000000 -1.0000000 )
                  (  0.0000000  1.0000000  0.0000000 )


      isym = 40     inv.  90 deg rotation - cart. axis [1,0,0]   

 cryst.   s(40) = (    -1          0          0      )
                  (     0          0         -1      )
                  (     0          1          0      )

 cart.    s(40) = ( -1.0000000  0.0000000  0.0000000 )
                  (  0.0000000  0.0000000  1.0000000 )
                  (  0.0000000 -1.0000000  0.0000000 )


      isym = 41     inv. 120 deg rotation - cart. axis [-1,-1,-1]

 cryst.   s(41) = (     0          0         -1      )
                  (    -1          0          0      )
                  (     0         -1          0      )

 cart.    s(41) = (  0.0000000 -1.0000000  0.0000000 )
                  (  0.0000000  0.0000000 -1.0000000 )
                  ( -1.0000000  0.0000000  0.0000000 )


      isym = 42     inv. 120 deg rotation - cart. axis [-1,1,1]  

 cryst.   s(42) = (     0          0          1      )
                  (     1          0          0      )
                  (     0         -1          0      )

 cart.    s(42) = (  0.0000000  1.0000000  0.0000000 )
                  (  0.0000000  0.0000000 -1.0000000 )
                  (  1.0000000  0.0000000  0.0000000 )


      isym = 43     inv. 120 deg rotation - cart. axis [1,1,-1]  

 cryst.   s(43) = (     0          0          1      )
                  (    -1          0          0      )
                  (     0          1          0      )

 cart.    s(43) = (  0.0000000 -1.0000000  0.0000000 )
                  (  0.0000000  0.0000000  1.0000000 )
                  (  1.0000000  0.0000000  0.0000000 )


      isym = 44     inv. 120 deg rotation - cart. axis [1,-1,1]  

 cryst.   s(44) = (     0          0         -1      )
                  (     1          0          0      )
                  (     0          1          0      )

 cart.    s(44) = (  0.0000000  1.0000000  0.0000000 )
                  (  0.0000000  0.0000000  1.0000000 )
                  ( -1.0000000  0.0000000  0.0000000 )


      isym = 45     inv. 120 deg rotation - cart. axis [1,1,1]   

 cryst.   s(45) = (     0         -1          0      )
                  (     0          0         -1      )
                  (    -1          0          0      )

 cart.    s(45) = (  0.0000000  0.0000000 -1.0000000 )
                  ( -1.0000000  0.0000000  0.0000000 )
                  (  0.0000000 -1.0000000  0.0000000 )


      isym = 46     inv. 120 deg rotation - cart. axis [-1,1,-1] 

 cryst.   s(46) = (     0          1          0      )
                  (     0          0          1      )
                  (    -1          0          0      )

 cart.    s(46) = (  0.0000000  0.0000000 -1.0000000 )
                  (  1.0000000  0.0000000  0.0000000 )
                  (  0.0000000  1.0000000  0.0000000 )


      isym = 47     inv. 120 deg rotation - cart. axis [1,-1,-1] 

 cryst.   s(47) = (     0          1          0      )
                  (     0          0         -1      )
                  (     1          0          0      )

 cart.    s(47) = (  0.0000000  0.0000000  1.0000000 )
                  (  1.0000000  0.0000000  0.0000000 )
                  (  0.0000000 -1.0000000  0.0000000 )


      isym = 48     inv. 120 deg rotation - cart. axis [-1,-1,1] 

 cryst.   s(48) = (     0         -1          0      )
                  (     0          0          1      )
                  (     1          0          0      )

 cart.    s(48) = (  0.0000000  0.0000000  1.0000000 )
                  ( -1.0000000  0.0000000  0.0000000 )
                  (  0.0000000  1.0000000  0.0000000 )


   Cartesian axes

     site n.     atom                  positions (alat units)
         1           Mg  tau(   1) = (   0.7500000   0.7500000   0.2500000  )
         2           Mg  tau(   2) = (   0.7500000   0.7500000   0.7500000  )
         3           Mg  tau(   3) = (   0.7500000   0.2500000   0.7500000  )
         4           Mg  tau(   4) = (   0.7500000   0.2500000   0.2500000  )
         5           Mg  tau(   5) = (   0.2500000   0.7500000   0.7500000  )
         6           Mg  tau(   6) = (   0.2500000   0.7500000   0.2500000  )
         7           Mg  tau(   7) = (   0.2500000   0.2500000   0.2500000  )
         8           Mg  tau(   8) = (   0.2500000   0.2500000   0.7500000  )
         9           Fe  tau(   9) = (   0.0000000   0.0000000   0.0000000  )
        10           Fe  tau(  10) = (   0.0000000   0.5000000   0.5000000  )
        11           Fe  tau(  11) = (   0.5000000   0.0000000   0.5000000  )
        12           Fe  tau(  12) = (   0.5000000   0.5000000   0.0000000  )
        13           H   tau(  13) = (   0.0000000   0.7570260   0.0000000  )
        14           H   tau(  14) = (   0.5000000   0.0000000   0.7429740  )
        15           H   tau(  15) = (   0.5000000   0.0000000   0.2570260  )
        16           H   tau(  16) = (   0.5000000   0.7429740   0.0000000  )
        17           H   tau(  17) = (   0.7570260   0.0000000   0.0000000  )
        18           H   tau(  18) = (   0.2429740   0.0000000   0.0000000  )
        19           H   tau(  19) = (   0.0000000   0.2570260   0.5000000  )
        20           H   tau(  20) = (   0.5000000   0.5000000   0.2429740  )
        21           H   tau(  21) = (   0.5000000   0.5000000   0.7570260  )
        22           H   tau(  22) = (   0.5000000   0.2429740   0.5000000  )
        23           H   tau(  23) = (   0.7570260   0.5000000   0.5000000  )
        24           H   tau(  24) = (   0.2429740   0.5000000   0.5000000  )
        25           H   tau(  25) = (   0.5000000   0.7570260   0.5000000  )
        26           H   tau(  26) = (   0.0000000   0.0000000   0.2429740  )
        27           H   tau(  27) = (   0.0000000   0.0000000   0.7570260  )
        28           H   tau(  28) = (   0.0000000   0.7429740   0.5000000  )
        29           H   tau(  29) = (   0.2570260   0.0000000   0.5000000  )
        30           H   tau(  30) = (   0.7429740   0.0000000   0.5000000  )
        31           H   tau(  31) = (   0.5000000   0.2570260   0.0000000  )
        32           H   tau(  32) = (   0.0000000   0.5000000   0.7429740  )
        33           H   tau(  33) = (   0.0000000   0.5000000   0.2570260  )
        34           H   tau(  34) = (   0.0000000   0.2429740   0.0000000  )
        35           H   tau(  35) = (   0.2570260   0.5000000   0.0000000  )
        36           H   tau(  36) = (   0.7429740   0.5000000   0.0000000  )

   Crystallographic axes

     site n.     atom                  positions (cryst. coord.)
         1           Mg  tau(   1) = (  0.7500000  0.7500000  0.2500000  )
         2           Mg  tau(   2) = (  0.7500000  0.7500000  0.7500000  )
         3           Mg  tau(   3) = (  0.7500000  0.2500000  0.7500000  )
         4           Mg  tau(   4) = (  0.7500000  0.2500000  0.2500000  )
         5           Mg  tau(   5) = (  0.2500000  0.7500000  0.7500000  )
         6           Mg  tau(   6) = (  0.2500000  0.7500000  0.2500000  )
         7           Mg  tau(   7) = (  0.2500000  0.2500000  0.2500000  )
         8           Mg  tau(   8) = (  0.2500000  0.2500000  0.7500000  )
         9           Fe  tau(   9) = (  0.0000000  0.0000000  0.0000000  )
        10           Fe  tau(  10) = (  0.0000000  0.5000000  0.5000000  )
        11           Fe  tau(  11) = (  0.5000000  0.0000000  0.5000000  )
        12           Fe  tau(  12) = (  0.5000000  0.5000000  0.0000000  )
        13           H   tau(  13) = (  0.0000000  0.7570260  0.0000000  )
        14           H   tau(  14) = (  0.5000000  0.0000000  0.7429740  )
        15           H   tau(  15) = (  0.5000000  0.0000000  0.2570260  )
        16           H   tau(  16) = (  0.5000000  0.7429740  0.0000000  )
        17           H   tau(  17) = (  0.7570260  0.0000000  0.0000000  )
        18           H   tau(  18) = (  0.2429740  0.0000000  0.0000000  )
        19           H   tau(  19) = (  0.0000000  0.2570260  0.5000000  )
        20           H   tau(  20) = (  0.5000000  0.5000000  0.2429740  )
        21           H   tau(  21) = (  0.5000000  0.5000000  0.7570260  )
        22           H   tau(  22) = (  0.5000000  0.2429740  0.5000000  )
        23           H   tau(  23) = (  0.7570260  0.5000000  0.5000000  )
        24           H   tau(  24) = (  0.2429740  0.5000000  0.5000000  )
        25           H   tau(  25) = (  0.5000000  0.7570260  0.5000000  )
        26           H   tau(  26) = (  0.0000000  0.0000000  0.2429740  )
        27           H   tau(  27) = (  0.0000000  0.0000000  0.7570260  )
        28           H   tau(  28) = (  0.0000000  0.7429740  0.5000000  )
        29           H   tau(  29) = (  0.2570260  0.0000000  0.5000000  )
        30           H   tau(  30) = (  0.7429740  0.0000000  0.5000000  )
        31           H   tau(  31) = (  0.5000000  0.2570260  0.0000000  )
        32           H   tau(  32) = (  0.0000000  0.5000000  0.7429740  )
        33           H   tau(  33) = (  0.0000000  0.5000000  0.2570260  )
        34           H   tau(  34) = (  0.0000000  0.2429740  0.0000000  )
        35           H   tau(  35) = (  0.2570260  0.5000000  0.0000000  )
        36           H   tau(  36) = (  0.7429740  0.5000000  0.0000000  )

     number of k points=    56  Gaussian smearing, width (Ry)=  0.0200
                       cart. coord. in units 2pi/alat
        k(    1) = (   0.0000000   0.0000000   0.0000000), wk =   0.0020000
        k(    2) = (   0.0000000   0.0000000   0.1000000), wk =   0.0120000
        k(    3) = (   0.0000000   0.0000000   0.2000000), wk =   0.0120000
        k(    4) = (   0.0000000   0.0000000   0.3000000), wk =   0.0120000
        k(    5) = (   0.0000000   0.0000000   0.4000000), wk =   0.0120000
        k(    6) = (   0.0000000   0.0000000  -0.5000000), wk =   0.0060000
        k(    7) = (   0.0000000   0.1000000   0.1000000), wk =   0.0240000
        k(    8) = (   0.0000000   0.1000000   0.2000000), wk =   0.0480000
        k(    9) = (   0.0000000   0.1000000   0.3000000), wk =   0.0480000
        k(   10) = (   0.0000000   0.1000000   0.4000000), wk =   0.0480000
        k(   11) = (   0.0000000   0.1000000  -0.5000000), wk =   0.0240000
        k(   12) = (   0.0000000   0.2000000   0.2000000), wk =   0.0240000
        k(   13) = (   0.0000000   0.2000000   0.3000000), wk =   0.0480000
        k(   14) = (   0.0000000   0.2000000   0.4000000), wk =   0.0480000
        k(   15) = (   0.0000000   0.2000000  -0.5000000), wk =   0.0240000
        k(   16) = (   0.0000000   0.3000000   0.3000000), wk =   0.0240000
        k(   17) = (   0.0000000   0.3000000   0.4000000), wk =   0.0480000
        k(   18) = (   0.0000000   0.3000000  -0.5000000), wk =   0.0240000
        k(   19) = (   0.0000000   0.4000000   0.4000000), wk =   0.0240000
        k(   20) = (   0.0000000   0.4000000  -0.5000000), wk =   0.0240000
        k(   21) = (   0.0000000  -0.5000000  -0.5000000), wk =   0.0060000
        k(   22) = (   0.1000000   0.1000000   0.1000000), wk =   0.0160000
        k(   23) = (   0.1000000   0.1000000   0.2000000), wk =   0.0480000
        k(   24) = (   0.1000000   0.1000000   0.3000000), wk =   0.0480000
        k(   25) = (   0.1000000   0.1000000   0.4000000), wk =   0.0480000
        k(   26) = (   0.1000000   0.1000000  -0.5000000), wk =   0.0240000
        k(   27) = (   0.1000000   0.2000000   0.2000000), wk =   0.0480000
        k(   28) = (   0.1000000   0.2000000   0.3000000), wk =   0.0960000
        k(   29) = (   0.1000000   0.2000000   0.4000000), wk =   0.0960000
        k(   30) = (   0.1000000   0.2000000  -0.5000000), wk =   0.0480000
        k(   31) = (   0.1000000   0.3000000   0.3000000), wk =   0.0480000
        k(   32) = (   0.1000000   0.3000000   0.4000000), wk =   0.0960000
        k(   33) = (   0.1000000   0.3000000  -0.5000000), wk =   0.0480000
        k(   34) = (   0.1000000   0.4000000   0.4000000), wk =   0.0480000
        k(   35) = (   0.1000000   0.4000000  -0.5000000), wk =   0.0480000
        k(   36) = (   0.1000000  -0.5000000  -0.5000000), wk =   0.0120000
        k(   37) = (   0.2000000   0.2000000   0.2000000), wk =   0.0160000
        k(   38) = (   0.2000000   0.2000000   0.3000000), wk =   0.0480000
        k(   39) = (   0.2000000   0.2000000   0.4000000), wk =   0.0480000
        k(   40) = (   0.2000000   0.2000000  -0.5000000), wk =   0.0240000
        k(   41) = (   0.2000000   0.3000000   0.3000000), wk =   0.0480000
        k(   42) = (   0.2000000   0.3000000   0.4000000), wk =   0.0960000
        k(   43) = (   0.2000000   0.3000000  -0.5000000), wk =   0.0480000
        k(   44) = (   0.2000000   0.4000000   0.4000000), wk =   0.0480000
        k(   45) = (   0.2000000   0.4000000  -0.5000000), wk =   0.0480000
        k(   46) = (   0.2000000  -0.5000000  -0.5000000), wk =   0.0120000
        k(   47) = (   0.3000000   0.3000000   0.3000000), wk =   0.0160000
        k(   48) = (   0.3000000   0.3000000   0.4000000), wk =   0.0480000
        k(   49) = (   0.3000000   0.3000000  -0.5000000), wk =   0.0240000
        k(   50) = (   0.3000000   0.4000000   0.4000000), wk =   0.0480000
        k(   51) = (   0.3000000   0.4000000  -0.5000000), wk =   0.0480000
        k(   52) = (   0.3000000  -0.5000000  -0.5000000), wk =   0.0120000
        k(   53) = (   0.4000000   0.4000000   0.4000000), wk =   0.0160000
        k(   54) = (   0.4000000   0.4000000  -0.5000000), wk =   0.0240000
        k(   55) = (   0.4000000  -0.5000000  -0.5000000), wk =   0.0120000
        k(   56) = (  -0.5000000  -0.5000000  -0.5000000), wk =   0.0020000

                       cryst. coord.
        k(    1) = (   0.0000000   0.0000000   0.0000000), wk =   0.0020000
        k(    2) = (   0.0000000   0.0000000   0.1000000), wk =   0.0120000
        k(    3) = (   0.0000000   0.0000000   0.2000000), wk =   0.0120000
        k(    4) = (   0.0000000   0.0000000   0.3000000), wk =   0.0120000
        k(    5) = (   0.0000000   0.0000000   0.4000000), wk =   0.0120000
        k(    6) = (   0.0000000   0.0000000  -0.5000000), wk =   0.0060000
        k(    7) = (   0.0000000   0.1000000   0.1000000), wk =   0.0240000
        k(    8) = (   0.0000000   0.1000000   0.2000000), wk =   0.0480000
        k(    9) = (   0.0000000   0.1000000   0.3000000), wk =   0.0480000
        k(   10) = (   0.0000000   0.1000000   0.4000000), wk =   0.0480000
        k(   11) = (   0.0000000   0.1000000  -0.5000000), wk =   0.0240000
        k(   12) = (   0.0000000   0.2000000   0.2000000), wk =   0.0240000
        k(   13) = (   0.0000000   0.2000000   0.3000000), wk =   0.0480000
        k(   14) = (   0.0000000   0.2000000   0.4000000), wk =   0.0480000
        k(   15) = (   0.0000000   0.2000000  -0.5000000), wk =   0.0240000
        k(   16) = (   0.0000000   0.3000000   0.3000000), wk =   0.0240000
        k(   17) = (   0.0000000   0.3000000   0.4000000), wk =   0.0480000
        k(   18) = (   0.0000000   0.3000000  -0.5000000), wk =   0.0240000
        k(   19) = (   0.0000000   0.4000000   0.4000000), wk =   0.0240000
        k(   20) = (   0.0000000   0.4000000  -0.5000000), wk =   0.0240000
        k(   21) = (   0.0000000  -0.5000000  -0.5000000), wk =   0.0060000
        k(   22) = (   0.1000000   0.1000000   0.1000000), wk =   0.0160000
        k(   23) = (   0.1000000   0.1000000   0.2000000), wk =   0.0480000
        k(   24) = (   0.1000000   0.1000000   0.3000000), wk =   0.0480000
        k(   25) = (   0.1000000   0.1000000   0.4000000), wk =   0.0480000
        k(   26) = (   0.1000000   0.1000000  -0.5000000), wk =   0.0240000
        k(   27) = (   0.1000000   0.2000000   0.2000000), wk =   0.0480000
        k(   28) = (   0.1000000   0.2000000   0.3000000), wk =   0.0960000
        k(   29) = (   0.1000000   0.2000000   0.4000000), wk =   0.0960000
        k(   30) = (   0.1000000   0.2000000  -0.5000000), wk =   0.0480000
        k(   31) = (   0.1000000   0.3000000   0.3000000), wk =   0.0480000
        k(   32) = (   0.1000000   0.3000000   0.4000000), wk =   0.0960000
        k(   33) = (   0.1000000   0.3000000  -0.5000000), wk =   0.0480000
        k(   34) = (   0.1000000   0.4000000   0.4000000), wk =   0.0480000
        k(   35) = (   0.1000000   0.4000000  -0.5000000), wk =   0.0480000
        k(   36) = (   0.1000000  -0.5000000  -0.5000000), wk =   0.0120000
        k(   37) = (   0.2000000   0.2000000   0.2000000), wk =   0.0160000
        k(   38) = (   0.2000000   0.2000000   0.3000000), wk =   0.0480000
        k(   39) = (   0.2000000   0.2000000   0.4000000), wk =   0.0480000
        k(   40) = (   0.2000000   0.2000000  -0.5000000), wk =   0.0240000
        k(   41) = (   0.2000000   0.3000000   0.3000000), wk =   0.0480000
        k(   42) = (   0.2000000   0.3000000   0.4000000), wk =   0.0960000
        k(   43) = (   0.2000000   0.3000000  -0.5000000), wk =   0.0480000
        k(   44) = (   0.2000000   0.4000000   0.4000000), wk =   0.0480000
        k(   45) = (   0.2000000   0.4000000  -0.5000000), wk =   0.0480000
        k(   46) = (   0.2000000  -0.5000000  -0.5000000), wk =   0.0120000
        k(   47) = (   0.3000000   0.3000000   0.3000000), wk =   0.0160000
        k(   48) = (   0.3000000   0.3000000   0.4000000), wk =   0.0480000
        k(   49) = (   0.3000000   0.3000000  -0.5000000), wk =   0.0240000
        k(   50) = (   0.3000000   0.4000000   0.4000000), wk =   0.0480000
        k(   51) = (   0.3000000   0.4000000  -0.5000000), wk =   0.0480000
        k(   52) = (   0.3000000  -0.5000000  -0.5000000), wk =   0.0120000
        k(   53) = (   0.4000000   0.4000000   0.4000000), wk =   0.0160000
        k(   54) = (   0.4000000   0.4000000  -0.5000000), wk =   0.0240000
        k(   55) = (   0.4000000  -0.5000000  -0.5000000), wk =   0.0120000
        k(   56) = (  -0.5000000  -0.5000000  -0.5000000), wk =   0.0020000

     Dense  grid:  1038085 G-vectors     FFT dimensions: ( 125, 125, 125)

     Smooth grid:   199949 G-vectors     FFT dimensions: (  75,  75,  75)

     Dynamical RAM for                 wfc:       0.74 MB

     Dynamical RAM for     wfc (w. buffer):      21.40 MB

     Dynamical RAM for           str. fact:       1.49 MB

     Dynamical RAM for           local pot:       0.00 MB

     Dynamical RAM for          nlocal pot:       2.19 MB

     Dynamical RAM for                qrad:       7.91 MB

     Dynamical RAM for          rho,v,vnew:       2.92 MB

     Dynamical RAM for               rhoin:       0.97 MB

     Dynamical RAM for            rho*nmix:       7.92 MB

     Dynamical RAM for           G-vectors:       1.90 MB

     Dynamical RAM for          h,s,v(r/c):       0.70 MB

     Dynamical RAM for          <psi|beta>:       0.17 MB

     Dynamical RAM for                 psi:       1.48 MB

     Dynamical RAM for                hpsi:       1.48 MB

     Dynamical RAM for                spsi:       1.48 MB

     Dynamical RAM for      wfcinit/wfcrot:       2.84 MB

     Dynamical RAM for           addusdens:      52.23 MB

     Dynamical RAM for          addusforce:      63.70 MB

     Dynamical RAM for         addusstress:      49.87 MB

     Estimated static dynamical RAM per process >      43.14 MB

     Estimated max dynamical RAM per process >     114.76 MB

     Estimated total dynamical RAM >       6.93 GB

     Check: negative core charge=   -0.000001

     Initial potential from superposition of free atoms

     starting charge     103.9909, renormalised to     104.0000
     Starting wfcs are  108 randomized atomic wfcs
     Checking if some PAW data can be deallocated... 
       PAW data deallocated on   56 nodes for type:  1
       PAW data deallocated on   48 nodes for type:  3

     total cpu time spent up to now is        4.8 secs

     Self-consistent Calculation

     iteration #  1     ecut=    90.00 Ry     beta= 0.40
     Davidson diagonalization with overlap

---- Real-time Memory Report at c_bands before calling an iterative solver
           121 MiB given to the printing process from OS
             0 MiB allocation reported by mallinfo(arena+hblkhd)
        237615 MiB available memory on the node where the printing process lives
------------------
     ethr =  1.00E-02,  avg # of iterations =  2.0

     total cpu time spent up to now is       10.8 secs

     total energy              =   -1596.63436796 Ry
     estimated scf accuracy    <       4.50778600 Ry

     iteration #  2     ecut=    90.00 Ry     beta= 0.40
     Davidson diagonalization with overlap

---- Real-time Memory Report at c_bands before calling an iterative solver
           163 MiB given to the printing process from OS
             0 MiB allocation reported by mallinfo(arena+hblkhd)
        236691 MiB available memory on the node where the printing process lives
------------------
     ethr =  4.33E-03,  avg # of iterations =  4.5

     total cpu time spent up to now is       17.8 secs

     total energy              =   -1596.04675137 Ry
     estimated scf accuracy    <      18.35185937 Ry

     iteration #  3     ecut=    90.00 Ry     beta= 0.40
     Davidson diagonalization with overlap

---- Real-time Memory Report at c_bands before calling an iterative solver
           166 MiB given to the printing process from OS
             0 MiB allocation reported by mallinfo(arena+hblkhd)
        236649 MiB available memory on the node where the printing process lives
------------------
     ethr =  4.33E-03,  avg # of iterations =  4.0

     total cpu time spent up to now is       24.1 secs

     total energy              =   -1597.88945080 Ry
     estimated scf accuracy    <       0.45540365 Ry

     iteration #  4     ecut=    90.00 Ry     beta= 0.40
     Davidson diagonalization with overlap

---- Real-time Memory Report at c_bands before calling an iterative solver
           167 MiB given to the printing process from OS
             0 MiB allocation reported by mallinfo(arena+hblkhd)
        236648 MiB available memory on the node where the printing process lives
------------------
     ethr =  4.38E-04,  avg # of iterations =  3.1

     total cpu time spent up to now is       30.3 secs

     total energy              =   -1597.97206016 Ry
     estimated scf accuracy    <       0.03651104 Ry

     iteration #  5     ecut=    90.00 Ry     beta= 0.40
     Davidson diagonalization with overlap

---- Real-time Memory Report at c_bands before calling an iterative solver
           167 MiB given to the printing process from OS
             0 MiB allocation reported by mallinfo(arena+hblkhd)
        236627 MiB available memory on the node where the printing process lives
------------------
     ethr =  3.51E-05,  avg # of iterations =  5.3

     total cpu time spent up to now is       38.0 secs

     total energy              =   -1597.98136624 Ry
     estimated scf accuracy    <       0.00224799 Ry

     iteration #  6     ecut=    90.00 Ry     beta= 0.40
     Davidson diagonalization with overlap

---- Real-time Memory Report at c_bands before calling an iterative solver
           168 MiB given to the printing process from OS
             0 MiB allocation reported by mallinfo(arena+hblkhd)
        236620 MiB available memory on the node where the printing process lives
------------------
     ethr =  2.16E-06,  avg # of iterations =  6.7

     total cpu time spent up to now is       47.1 secs

     total energy              =   -1597.98193739 Ry
     estimated scf accuracy    <       0.00292382 Ry

     iteration #  7     ecut=    90.00 Ry     beta= 0.40
     Davidson diagonalization with overlap

---- Real-time Memory Report at c_bands before calling an iterative solver
           169 MiB given to the printing process from OS
             0 MiB allocation reported by mallinfo(arena+hblkhd)
        236607 MiB available memory on the node where the printing process lives
------------------
     ethr =  2.16E-06,  avg # of iterations =  2.5

     total cpu time spent up to now is       52.5 secs

     total energy              =   -1597.98206937 Ry
     estimated scf accuracy    <       0.00111884 Ry

     iteration #  8     ecut=    90.00 Ry     beta= 0.40
     Davidson diagonalization with overlap

---- Real-time Memory Report at c_bands before calling an iterative solver
           169 MiB given to the printing process from OS
             0 MiB allocation reported by mallinfo(arena+hblkhd)
        236601 MiB available memory on the node where the printing process lives
------------------
     ethr =  1.08E-06,  avg # of iterations =  2.0

     total cpu time spent up to now is       58.0 secs

     total energy              =   -1597.98221704 Ry
     estimated scf accuracy    <       0.00010253 Ry

     iteration #  9     ecut=    90.00 Ry     beta= 0.40
     Davidson diagonalization with overlap

---- Real-time Memory Report at c_bands before calling an iterative solver
           170 MiB given to the printing process from OS
             0 MiB allocation reported by mallinfo(arena+hblkhd)
        236595 MiB available memory on the node where the printing process lives
------------------
     ethr =  9.86E-08,  avg # of iterations =  5.1

     total cpu time spent up to now is       65.6 secs

     total energy              =   -1597.98224700 Ry
     estimated scf accuracy    <       0.00008143 Ry

     iteration # 10     ecut=    90.00 Ry     beta= 0.40
     Davidson diagonalization with overlap

---- Real-time Memory Report at c_bands before calling an iterative solver
           170 MiB given to the printing process from OS
             0 MiB allocation reported by mallinfo(arena+hblkhd)
        236592 MiB available memory on the node where the printing process lives
------------------
     ethr =  7.83E-08,  avg # of iterations =  1.0

     total cpu time spent up to now is       70.2 secs

     total energy              =   -1597.98224255 Ry
     estimated scf accuracy    <       0.00002944 Ry

     iteration # 11     ecut=    90.00 Ry     beta= 0.40
     Davidson diagonalization with overlap

---- Real-time Memory Report at c_bands before calling an iterative solver
           171 MiB given to the printing process from OS
             0 MiB allocation reported by mallinfo(arena+hblkhd)
        236566 MiB available memory on the node where the printing process lives
------------------
     ethr =  2.83E-08,  avg # of iterations =  2.3

     total cpu time spent up to now is       75.6 secs

     total energy              =   -1597.98224620 Ry
     estimated scf accuracy    <       0.00000106 Ry

     iteration # 12     ecut=    90.00 Ry     beta= 0.40
     Davidson diagonalization with overlap

---- Real-time Memory Report at c_bands before calling an iterative solver
           171 MiB given to the printing process from OS
             0 MiB allocation reported by mallinfo(arena+hblkhd)
        236568 MiB available memory on the node where the printing process lives
------------------
     ethr =  1.02E-09,  avg # of iterations =  8.1

     total cpu time spent up to now is       88.0 secs

     total energy              =   -1597.98224812 Ry
     estimated scf accuracy    <       0.00000141 Ry

     iteration # 13     ecut=    90.00 Ry     beta= 0.40
     Davidson diagonalization with overlap

---- Real-time Memory Report at c_bands before calling an iterative solver
           171 MiB given to the printing process from OS
             0 MiB allocation reported by mallinfo(arena+hblkhd)
        236569 MiB available memory on the node where the printing process lives
------------------
     ethr =  1.02E-09,  avg # of iterations =  2.0

     total cpu time spent up to now is       93.1 secs

     total energy              =   -1597.98224824 Ry
     estimated scf accuracy    <       0.00000003 Ry

     iteration # 14     ecut=    90.00 Ry     beta= 0.40
     Davidson diagonalization with overlap

---- Real-time Memory Report at c_bands before calling an iterative solver
           171 MiB given to the printing process from OS
             0 MiB allocation reported by mallinfo(arena+hblkhd)
        236571 MiB available memory on the node where the printing process lives
------------------
     ethr =  3.15E-11,  avg # of iterations =  8.4

     total cpu time spent up to now is      104.0 secs

     End of self-consistent calculation

          k = 0.0000 0.0000 0.0000 ( 24885 PWs)   bands (ev):

   -79.7365 -79.7365 -79.7365 -79.7364 -45.9841 -45.9841 -45.9841 -45.9839
   -45.9839 -45.9839 -45.9839 -45.9839 -45.9839 -45.9837 -45.9837 -45.9837
    -4.1007  -1.4713  -1.4713  -1.4713   0.0615   0.0615   0.0615   0.9923
     0.9923   0.9923   1.8993   1.8993   1.8993   1.8993   1.8993   1.8993
     2.2234   2.2234   2.6061   2.6061   2.6061   3.3349   3.3349   3.3349
     4.0624   4.0624   4.0624   4.7280   4.7280   4.7280   5.5054   5.5054
     5.5054   5.5054   5.5054   5.5054   7.3168   7.3168   7.3168   9.3096
     9.3096   9.3096  10.8012  10.8012  10.8012  10.8973

     occupation numbers 
     1.0000   1.0000   1.0000   1.0000   1.0000   1.0000   1.0000   1.0000
     1.0000   1.0000   1.0000   1.0000   1.0000   1.0000   1.0000   1.0000
     1.0000   1.0000   1.0000   1.0000   1.0000   1.0000   1.0000   1.0000
     1.0000   1.0000   1.0000   1.0000   1.0000   1.0000   1.0000   1.0000
     1.0000   1.0000   1.0000   1.0000   1.0000   1.0000   1.0000   1.0000
     1.0000   1.0000   1.0000   1.0000   1.0000   1.0000   1.0000   1.0000
     1.0000   1.0000   1.0000   1.0000   0.0000   0.0000   0.0000   0.0000
     0.0000   0.0000   0.0000   0.0000   0.0000   0.0000

          k = 0.0000 0.0000 0.1000 ( 25009 PWs)   bands (ev):

   -79.7365 -79.7365 -79.7365 -79.7364 -45.9841 -45.9841 -45.9841 -45.9839
   -45.9839 -45.9839 -45.9839 -45.9839 -45.9839 -45.9838 -45.9837 -45.9837
    -4.0654  -1.6556  -1.4396  -1.4396   0.0898   0.0898   0.2336   0.8234
     0.8234   1.0616   1.8096   1.8096   1.9216   1.9216   1.9916   1.9916
     2.1666   2.2323   2.5962   2.6668   2.6669   3.2650   3.2650   3.3248
     4.0779   4.1529   4.1529   4.7109   4.7848   4.7848   5.4935   5.4935
     5.5005   5.5005   5.5054   5.5054   7.3307   7.3760   7.3760   9.3250
     9.3608   9.3608  10.5308  10.6903  10.8618  10.9106

     occupation numbers 
     1.0000   1.0000   1.0000   1.0000   1.0000   1.0000   1.0000   1.0000
     1.0000   1.0000   1.0000   1.0000   1.0000   1.0000   1.0000   1.0000
     1.0000   1.0000   1.0000   1.0000   1.0000   1.0000   1.0000   1.0000
     1.0000   1.0000   1.0000   1.0000   1.0000   1.0000   1.0000   1.0000
     1.0000   1.0000   1.0000   1.0000   1.0000   1.0000   1.0000   1.0000
     1.0000   1.0000   1.0000   1.0000   1.0000   1.0000   1.0000   1.0000
     1.0000   1.0000   1.0000   1.0000   0.0000   0.0000   0.0000   0.0000
     0.0000   0.0000   0.0000   0.0000   0.0000   0.0000

          k = 0.0000 0.0000 0.2000 ( 25000 PWs)   bands (ev):

   -79.7365 -79.7365 -79.7365 -79.7364 -45.9841 -45.9841 -45.9841 -45.9839
   -45.9839 -45.9839 -45.9839 -45.9839 -45.9839 -45.9838 -45.9838 -45.9838
    -3.9600  -2.0454  -1.3461  -1.3461   0.1742   0.1742   0.4773   0.4773
     0.5524   1.2968   1.5849   1.5849   1.9881   1.9881   2.0128   2.1120
     2.1121   2.2581   2.5676   2.8390   2.8390   3.0907   3.0907   3.2783
     4.1229   4.3760   4.3760   4.6615   4.9198   4.9198   5.4557   5.4557
     5.4845   5.4845   5.5054   5.5055   7.3798   7.5556   7.5556   9.3719
     9.5187   9.5187   9.8196  10.4442  11.0451  11.0452

     occupation numbers 
     1.0000   1.0000   1.0000   1.0000   1.0000   1.0000   1.0000   1.0000
     1.0000   1.0000   1.0000   1.0000   1.0000   1.0000   1.0000   1.0000
     1.0000   1.0000   1.0000   1.0000   1.0000   1.0000   1.0000   1.0000
     1.0000   1.0000   1.0000   1.0000   1.0000   1.0000   1.0000   1.0000
     1.0000   1.0000   1.0000   1.0000   1.0000   1.0000   1.0000   1.0000
     1.0000   1.0000   1.0000   1.0000   1.0000   1.0000   1.0000   1.0000
     1.0000   1.0000   1.0000   1.0000   0.0000   0.0000   0.0000   0.0000
     0.0000   0.0000   0.0000   0.0000   0.0000   0.0000

          k = 0.0000 0.0000 0.3000 ( 24952 PWs)   bands (ev):

   -79.7365 -79.7365 -79.7365 -79.7364 -45.9841 -45.9841 -45.9841 -45.9839
   -45.9839 -45.9839 -45.9839 -45.9839 -45.9839 -45.9838 -45.9838 -45.9838
    -3.7857  -2.4740  -1.1956  -1.1956   0.1039   0.1039   0.3129   0.3129
     0.8259   1.3009   1.3009   1.7026   1.7974   2.0974   2.0974   2.1734
     2.1734   2.2988   2.5236   2.8702   2.8702   3.0478   3.0478   3.1607
     4.1937   4.5852   4.6467   4.6467   5.0750   5.0750   5.3863   5.3863
     5.4536   5.4536   5.5055   5.5055   7.4851   7.8530   7.8530   9.0952
     9.4526   9.7941   9.7941  10.1748  10.6166  10.6166

     occupation numbers 
     1.0000   1.0000   1.0000   1.0000   1.0000   1.0000   1.0000   1.0000
     1.0000   1.0000   1.0000   1.0000   1.0000   1.0000   1.0000   1.0000
     1.0000   1.0000   1.0000   1.0000   1.0000   1.0000   1.0000   1.0000
     1.0000   1.0000   1.0000   1.0000   1.0000   1.0000   1.0000   1.0000
     1.0000   1.0000   1.0000   1.0000   1.0000   1.0000   1.0000   1.0000
     1.0000   1.0000   1.0000   1.0000   1.0000   1.0000   1.0000   1.0000
     1.0000   1.0000   1.0000   1.0000   0.0000   0.0000   0.0000   0.0000
     0.0000   0.0000   0.0000   0.0000   0.0000   0.0000

          k = 0.0000 0.0000 0.4000 ( 24984 PWs)   bands (ev):

   -79.7365 -79.7365 -79.7365 -79.7364 -45.9840 -45.9840 -45.9840 -45.9840
   -45.9840 -45.9839 -45.9839 -45.9839 -45.9839 -45.9838 -45.9838 -45.9838
    -3.5448  -2.8803  -1.0066  -1.0066  -0.2302  -0.2302   0.5026   0.5026
     1.0090   1.0090   1.0645   1.5536   2.1734   2.1988   2.1989   2.2465
     2.2465   2.3507   2.4689   2.6430   2.6430   2.9406   3.2035   3.2036
     4.2843   4.4901   4.9041   4.9041   5.2146   5.2146   5.2764   5.2764
     5.4023   5.4023   5.5056   5.5056   7.6796   8.2278   8.2278   8.4736
     9.5704   9.9313   9.9941   9.9941  10.1975  10.1975

     occupation numbers 
     1.0000   1.0000   1.0000   1.0000   1.0000   1.0000   1.0000   1.0000
     1.0000   1.0000   1.0000   1.0000   1.0000   1.0000   1.0000   1.0000
     1.0000   1.0000   1.0000   1.0000   1.0000   1.0000   1.0000   1.0000
     1.0000   1.0000   1.0000   1.0000   1.0000   1.0000   1.0000   1.0000
     1.0000   1.0000   1.0000   1.0000   1.0000   1.0000   1.0000   1.0000
     1.0000   1.0000   1.0000   1.0000   1.0000   1.0000   1.0000   1.0000
     1.0000   1.0000   1.0000   1.0000   0.0000   0.0000   0.0000   0.0000
     0.0000   0.0000   0.0000   0.0000   0.0000   0.0000

          k = 0.0000 0.0000-0.5000 ( 24964 PWs)   bands (ev):

   -79.7365 -79.7365 -79.7365 -79.7364 -45.9840 -45.9840 -45.9840 -45.9840
   -45.9840 -45.9840 -45.9839 -45.9839 -45.9839 -45.9838 -45.9838 -45.9838
    -3.2409  -3.2409  -0.8809  -0.8809  -0.4058  -0.4058   0.7376   0.7376
     0.7376   0.7376   1.3052   1.3052   2.2058   2.2058   2.4093   2.4093
     2.4309   2.4309   2.4309   2.4309   2.6052   2.6052   3.2597   3.2597
     4.3863   4.3864   5.1170   5.1170   5.1171   5.1171   5.3242   5.3242
     5.3242   5.3242   5.5056   5.5056   8.0004   8.0005   8.4619   8.4619
     9.6707   9.6707   9.7291   9.7291  10.7304  10.7304

     occupation numbers 
     1.0000   1.0000   1.0000   1.0000   1.0000   1.0000   1.0000   1.0000
     1.0000   1.0000   1.0000   1.0000   1.0000   1.0000   1.0000   1.0000
     1.0000   1.0000   1.0000   1.0000   1.0000   1.0000   1.0000   1.0000
     1.0000   1.0000   1.0000   1.0000   1.0000   1.0000   1.0000   1.0000
     1.0000   1.0000   1.0000   1.0000   1.0000   1.0000   1.0000   1.0000
     1.0000   1.0000   1.0000   1.0000   1.0000   1.0000   1.0000   1.0000
     1.0000   1.0000   1.0000   1.0000   0.0000   0.0000   0.0000   0.0000
     0.0000   0.0000   0.0000   0.0000   0.0000   0.0000

          k = 0.0000 0.1000 0.1000 ( 24977 PWs)   bands (ev):

   -79.7365 -79.7365 -79.7365 -79.7364 -45.9841 -45.9841 -45.9841 -45.9839
   -45.9839 -45.9839 -45.9839 -45.9839 -45.9839 -45.9838 -45.9838 -45.9837
    -4.0302  -1.6237  -1.6237  -1.4086   0.1181   0.2596   0.2596   0.6574
     0.8874   0.8874   1.8323   1.8323   1.8395   1.9877   2.0177   2.0177
     2.1487   2.2024   2.6598   2.6598   2.7146   3.1002   3.1950   3.4284
     4.1675   4.1675   4.2309   4.7497   4.7870   4.8270   5.4887   5.4888
     5.4901   5.4972   5.5004   5.5004   7.3893   7.3894   7.4302   9.3765
     9.3765   9.4162  10.4320  10.6792  10.6980  10.8316

     occupation numbers 
     1.0000   1.0000   1.0000   1.0000   1.0000   1.0000   1.0000   1.0000
     1.0000   1.0000   1.0000   1.0000   1.0000   1.0000   1.0000   1.0000
     1.0000   1.0000   1.0000   1.0000   1.0000   1.0000   1.0000   1.0000
     1.0000   1.0000   1.0000   1.0000   1.0000   1.0000   1.0000   1.0000
     1.0000   1.0000   1.0000   1.0000   1.0000   1.0000   1.0000   1.0000
     1.0000   1.0000   1.0000   1.0000   1.0000   1.0000   1.0000   1.0000
     1.0000   1.0000   1.0000   1.0000   0.0000   0.0000   0.0000   0.0000
     0.0000   0.0000   0.0000   0.0000   0.0000   0.0000

          k = 0.0000 0.1000 0.2000 ( 24956 PWs)   bands (ev):

   -79.7365 -79.7365 -79.7365 -79.7364 -45.9841 -45.9841 -45.9841 -45.9839
   -45.9839 -45.9839 -45.9839 -45.9839 -45.9839 -45.9838 -45.9838 -45.9837
    -3.9249  -2.0129  -1.5292  -1.3170   0.2022   0.3134   0.3271   0.5482
     0.5618   1.1115   1.6087   1.6768   1.9001   2.0110   2.0977   2.0985
     2.1362   2.2047   2.6419   2.8407   2.8646   2.8884   3.0194   3.4634
     4.2101   4.3885   4.4266   4.7160   4.9105   4.9369   5.4514   5.4552
     5.4732   5.4839   5.4955   5.5000   7.4365   7.5668   7.5941   9.4243
     9.5353   9.5863   9.8270  10.4810  10.6732  10.9806

     occupation numbers 
     1.0000   1.0000   1.0000   1.0000   1.0000   1.0000   1.0000   1.0000
     1.0000   1.0000   1.0000   1.0000   1.0000   1.0000   1.0000   1.0000
     1.0000   1.0000   1.0000   1.0000   1.0000   1.0000   1.0000   1.0000
     1.0000   1.0000   1.0000   1.0000   1.0000   1.0000   1.0000   1.0000
     1.0000   1.0000   1.0000   1.0000   1.0000   1.0000   1.0000   1.0000
     1.0000   1.0000   1.0000   1.0000   1.0000   1.0000   1.0000   1.0000
     1.0000   1.0000   1.0000   1.0000   0.0000   0.0000   0.0000   0.0000
     0.0000   0.0000   0.0000   0.0000   0.0000   0.0000

          k = 0.0000 0.1000 0.3000 ( 24948 PWs)   bands (ev):

   -79.7365 -79.7365 -79.7365 -79.7364 -45.9841 -45.9841 -45.9840 -45.9839
   -45.9839 -45.9839 -45.9839 -45.9839 -45.9839 -45.9838 -45.9838 -45.9838
    -3.7508  -2.4408  -1.3760  -1.1728  -0.0560   0.1348   0.3406   0.4954
     0.8091   1.3257   1.4224   1.4772   1.7913   2.0114   2.1724   2.1925
     2.2194   2.2383   2.6296   2.6846   2.7965   3.0581   3.0645   3.3898
     4.2771   4.6453   4.6565   4.6712   5.0669   5.0760   5.3827   5.3869
     5.4430   5.4523   5.4960   5.4994   7.5385   7.8596   7.8654   9.1223
     9.5062   9.8119   9.8796  10.2245  10.5415  10.5698

     occupation numbers 
     1.0000   1.0000   1.0000   1.0000   1.0000   1.0000   1.0000   1.0000
     1.0000   1.0000   1.0000   1.0000   1.0000   1.0000   1.0000   1.0000
     1.0000   1.0000   1.0000   1.0000   1.0000   1.0000   1.0000   1.0000
     1.0000   1.0000   1.0000   1.0000   1.0000   1.0000   1.0000   1.0000
     1.0000   1.0000   1.0000   1.0000   1.0000   1.0000   1.0000   1.0000
     1.0000   1.0000   1.0000   1.0000   1.0000   1.0000   1.0000   1.0000
     1.0000   1.0000   1.0000   1.0000   0.0000   0.0000   0.0000   0.0000
     0.0000   0.0000   0.0000   0.0000   0.0000   0.0000

          k = 0.0000 0.1000 0.4000 ( 24973 PWs)   bands (ev):

   -79.7365 -79.7365 -79.7365 -79.7364 -45.9840 -45.9840 -45.9840 -45.9840
   -45.9840 -45.9839 -45.9839 -45.9839 -45.9839 -45.9838 -45.9838 -45.9838
    -3.5102  -2.8465  -1.1766  -1.0089  -0.3673  -0.2034   0.5297   0.6709
     1.0347   1.0365   1.1509   1.5370   1.8266   2.1632   2.2006   2.2057
     2.2139   2.3925   2.5219   2.5661   2.6967   3.2066   3.2190   3.2204
     4.3626   4.5563   4.9110   4.9119   5.2085   5.2087   5.2739   5.2786
     5.3926   5.3999   5.4969   5.4987   7.7282   8.2107   8.2243   8.5096
     9.6253   9.9292   9.9708   9.9858  10.2166  10.3022

     occupation numbers 
     1.0000   1.0000   1.0000   1.0000   1.0000   1.0000   1.0000   1.0000
     1.0000   1.0000   1.0000   1.0000   1.0000   1.0000   1.0000   1.0000
     1.0000   1.0000   1.0000   1.0000   1.0000   1.0000   1.0000   1.0000
     1.0000   1.0000   1.0000   1.0000   1.0000   1.0000   1.0000   1.0000
     1.0000   1.0000   1.0000   1.0000   1.0000   1.0000   1.0000   1.0000
     1.0000   1.0000   1.0000   1.0000   1.0000   1.0000   1.0000   1.0000
     1.0000   1.0000   1.0000   1.0000   0.0000   0.0000   0.0000   0.0000
     0.0000   0.0000   0.0000   0.0000   0.0000   0.0000

          k = 0.0000 0.1000-0.5000 ( 24938 PWs)   bands (ev):

   -79.7365 -79.7365 -79.7365 -79.7364 -45.9840 -45.9840 -45.9840 -45.9840
   -45.9840 -45.9839 -45.9839 -45.9839 -45.9838 -45.9838 -45.9838 -45.9838
    -3.2067  -3.2067  -0.9880  -0.9880  -0.4401  -0.4401   0.7642   0.7642
     0.8944   0.8944   1.2794   1.2794   2.0732   2.0732   2.2172   2.2172
     2.3507   2.3507   2.4490   2.4490   2.9399   2.9399   3.2771   3.2771
     4.4587   4.4587   5.1172   5.1172   5.1213   5.1214   5.3157   5.3157
     5.3201   5.3201   5.4978   5.4978   8.0432   8.0433   8.4376   8.4376
     9.6386   9.6386   9.7847   9.7847  10.7501  10.7503

     occupation numbers 
     1.0000   1.0000   1.0000   1.0000   1.0000   1.0000   1.0000   1.0000
     1.0000   1.0000   1.0000   1.0000   1.0000   1.0000   1.0000   1.0000
     1.0000   1.0000   1.0000   1.0000   1.0000   1.0000   1.0000   1.0000
     1.0000   1.0000   1.0000   1.0000   1.0000   1.0000   1.0000   1.0000
     1.0000   1.0000   1.0000   1.0000   1.0000   1.0000   1.0000   1.0000
     1.0000   1.0000   1.0000   1.0000   1.0000   1.0000   1.0000   1.0000
     1.0000   1.0000   1.0000   1.0000   0.0000   0.0000   0.0000   0.0000
     0.0000   0.0000   0.0000   0.0000   0.0000   0.0000

          k = 0.0000 0.2000 0.2000 ( 24952 PWs)   bands (ev):

   -79.7365 -79.7365 -79.7365 -79.7364 -45.9841 -45.9841 -45.9841 -45.9839
   -45.9839 -45.9839 -45.9839 -45.9839 -45.9839 -45.9838 -45.9838 -45.9837
    -3.8200  -1.9163  -1.9163  -1.2342  -0.0257   0.2858   0.5164   0.5164
     0.8540   0.8540   1.6793   1.6793   1.7304   1.9887   2.0450   2.1159
     2.2073   2.2073   2.6764   2.8395   2.8551   2.8551   2.9651   3.6301
     4.4249   4.4249   4.5596   4.8121   4.9167   4.9921   5.4371   5.4372
     5.4444   5.4725   5.4823   5.4823   7.6075   7.6075   7.7119   9.5855
     9.5855   9.7371   9.7894  10.1823  10.5091  10.9267

     occupation numbers 
     1.0000   1.0000   1.0000   1.0000   1.0000   1.0000   1.0000   1.0000
     1.0000   1.0000   1.0000   1.0000   1.0000   1.0000   1.0000   1.0000
     1.0000   1.0000   1.0000   1.0000   1.0000   1.0000   1.0000   1.0000
     1.0000   1.0000   1.0000   1.0000   1.0000   1.0000   1.0000   1.0000
     1.0000   1.0000   1.0000   1.0000   1.0000   1.0000   1.0000   1.0000
     1.0000   1.0000   1.0000   1.0000   1.0000   1.0000   1.0000   1.0000
     1.0000   1.0000   1.0000   1.0000   0.0000   0.0000   0.0000   0.0000
     0.0000   0.0000   0.0000   0.0000   0.0000   0.0000

          k = 0.0000 0.2000 0.3000 ( 24955 PWs)   bands (ev):

   -79.7365 -79.7365 -79.7365 -79.7364 -45.9841 -45.9840 -45.9840 -45.9840
   -45.9839 -45.9839 -45.9839 -45.9839 -45.9839 -45.9838 -45.9838 -45.9838
    -3.6465  -2.3420  -1.7581  -1.1216  -0.3691   0.2305   0.4231   0.6859
     0.8662   1.2464   1.3994   1.6013   1.7509   1.7951   1.9814   2.1856
     2.2476   2.3110   2.5497   2.6098   2.9169   3.1000   3.1334   3.6624
     4.4820   4.6849   4.7393   4.7862   5.0472   5.0841   5.3704   5.3869
     5.4090   5.4485   5.4674   5.4797   7.6988   7.8870   7.9135   9.1966
     9.6709   9.8656  10.1260  10.1384  10.3589  10.3666

     occupation numbers 
     1.0000   1.0000   1.0000   1.0000   1.0000   1.0000   1.0000   1.0000
     1.0000   1.0000   1.0000   1.0000   1.0000   1.0000   1.0000   1.0000
     1.0000   1.0000   1.0000   1.0000   1.0000   1.0000   1.0000   1.0000
     1.0000   1.0000   1.0000   1.0000   1.0000   1.0000   1.0000   1.0000
     1.0000   1.0000   1.0000   1.0000   1.0000   1.0000   1.0000   1.0000
     1.0000   1.0000   1.0000   1.0000   1.0000   1.0000   1.0000   1.0000
     1.0000   1.0000   1.0000   1.0000   0.0000   0.0000   0.0000   0.0000
     0.0000   0.0000   0.0000   0.0000   0.0000   0.0000

          k = 0.0000 0.2000 0.4000 ( 24952 PWs)   bands (ev):

   -79.7365 -79.7365 -79.7365 -79.7364 -45.9840 -45.9840 -45.9840 -45.9840
   -45.9839 -45.9839 -45.9839 -45.9839 -45.9839 -45.9838 -45.9838 -45.9838
    -3.4068  -2.7458  -1.5453  -1.0984  -0.5449  -0.1113   0.6108   0.8979
     1.0064   1.1114   1.4010   1.4469   1.5627   1.9094   1.9530   2.2317
     2.2583   2.3713   2.3998   2.4832   3.0798   3.2762   3.2841   3.5484
     4.5545   4.7162   4.9310   4.9345   5.1918   5.1920   5.2650   5.2844
     5.3614   5.3927   5.4696   5.4765   7.8738   8.1851   8.2238   8.6170
     9.7831   9.7932   9.8945  10.1477  10.2627  10.2733

     occupation numbers 
     1.0000   1.0000   1.0000   1.0000   1.0000   1.0000   1.0000   1.0000
     1.0000   1.0000   1.0000   1.0000   1.0000   1.0000   1.0000   1.0000
     1.0000   1.0000   1.0000   1.0000   1.0000   1.0000   1.0000   1.0000
     1.0000   1.0000   1.0000   1.0000   1.0000   1.0000   1.0000   1.0000
     1.0000   1.0000   1.0000   1.0000   1.0000   1.0000   1.0000   1.0000
     1.0000   1.0000   1.0000   1.0000   1.0000   1.0000   1.0000   1.0000
     1.0000   1.0000   1.0000   1.0000   0.0000   0.0000   0.0000   0.0000
     0.0000   0.0000   0.0000   0.0000   0.0000   0.0000

          k = 0.0000 0.2000-0.5000 ( 24954 PWs)   bands (ev):

   -79.7365 -79.7365 -79.7365 -79.7364 -45.9840 -45.9840 -45.9840 -45.9840
   -45.9840 -45.9840 -45.9839 -45.9839 -45.9839 -45.9838 -45.9838 -45.9838
    -3.1044  -3.1044  -1.2972  -1.2972  -0.4024  -0.4024   0.8432   0.8432
     1.1550   1.1550   1.1929   1.1929   1.7768   1.7768   2.1479   2.1479
     2.2530   2.2531   2.4461   2.4461   3.3256   3.3256   3.3406   3.3406
     4.6354   4.6354   5.1171   5.1171   5.1335   5.1336   5.2889   5.2889
     5.3085   5.3085   5.4729   5.4730   8.1710   8.1711   8.3893   8.3893
     9.5611   9.5612   9.9533   9.9533  10.4261  10.4261

     occupation numbers 
     1.0000   1.0000   1.0000   1.0000   1.0000   1.0000   1.0000   1.0000
     1.0000   1.0000   1.0000   1.0000   1.0000   1.0000   1.0000   1.0000
     1.0000   1.0000   1.0000   1.0000   1.0000   1.0000   1.0000   1.0000
     1.0000   1.0000   1.0000   1.0000   1.0000   1.0000   1.0000   1.0000
     1.0000   1.0000   1.0000   1.0000   1.0000   1.0000   1.0000   1.0000
     1.0000   1.0000   1.0000   1.0000   1.0000   1.0000   1.0000   1.0000
     1.0000   1.0000   1.0000   1.0000   0.0000   0.0000   0.0000   0.0000
     0.0000   0.0000   0.0000   0.0000   0.0000   0.0000

          k = 0.0000 0.3000 0.3000 ( 24982 PWs)   bands (ev):

   -79.7365 -79.7365 -79.7365 -79.7364 -45.9841 -45.9840 -45.9840 -45.9840
   -45.9839 -45.9839 -45.9839 -45.9839 -45.9839 -45.9838 -45.9838 -45.9838
    -3.4741  -2.1794  -2.1794  -1.1477  -0.5797   0.3890   0.3890   0.5586
     1.2268   1.2268   1.5204   1.5204   1.5285   1.6439   1.8258   2.2330
     2.3258   2.3258   2.3706   2.4971   3.2049   3.2049   3.2687   3.8144
     4.7290   4.7290   4.8422   4.9079   5.0572   5.1132   5.3456   5.3457
     5.3695   5.4305   5.4425   5.4425   7.9574   7.9574   8.0217   9.2166
     9.5749   9.9554   9.9554  10.1259  10.1624  10.1625

     occupation numbers 
     1.0000   1.0000   1.0000   1.0000   1.0000   1.0000   1.0000   1.0000
     1.0000   1.0000   1.0000   1.0000   1.0000   1.0000   1.0000   1.0000
     1.0000   1.0000   1.0000   1.0000   1.0000   1.0000   1.0000   1.0000
     1.0000   1.0000   1.0000   1.0000   1.0000   1.0000   1.0000   1.0000
     1.0000   1.0000   1.0000   1.0000   1.0000   1.0000   1.0000   1.0000
     1.0000   1.0000   1.0000   1.0000   1.0000   1.0000   1.0000   1.0000
     1.0000   1.0000   1.0000   1.0000   0.0000   0.0000   0.0000   0.0000
     0.0000   0.0000   0.0000   0.0000   0.0000   0.0000

          k = 0.0000 0.3000 0.4000 ( 24955 PWs)   bands (ev):

   -79.7365 -79.7365 -79.7365 -79.7364 -45.9840 -45.9840 -45.9840 -45.9840
   -45.9840 -45.9839 -45.9839 -45.9839 -45.9838 -45.9838 -45.9838 -45.9838
    -3.2358  -2.5797  -1.9574  -1.3846  -0.5009   0.0473   0.6069   0.7437
     1.1940   1.2370   1.3147   1.4926   1.5649   1.6853   1.7579   2.1219
     2.2815   2.3238   2.3962   2.4674   3.3964   3.4011   3.4116   3.7962
     4.7844   4.8986   4.9615   4.9727   5.1715   5.1715   5.2471   5.2892
     5.3037   5.3818   5.4221   5.4351   8.1063   8.2030   8.2562   8.7888
     9.5926   9.6134   9.7406   9.9603  10.0804  10.3660

     occupation numbers 
     1.0000   1.0000   1.0000   1.0000   1.0000   1.0000   1.0000   1.0000
     1.0000   1.0000   1.0000   1.0000   1.0000   1.0000   1.0000   1.0000
     1.0000   1.0000   1.0000   1.0000   1.0000   1.0000   1.0000   1.0000
     1.0000   1.0000   1.0000   1.0000   1.0000   1.0000   1.0000   1.0000
     1.0000   1.0000   1.0000   1.0000   1.0000   1.0000   1.0000   1.0000
     1.0000   1.0000   1.0000   1.0000   1.0000   1.0000   1.0000   1.0000
     1.0000   1.0000   1.0000   1.0000   0.0000   0.0000   0.0000   0.0000
     0.0000   0.0000   0.0000   0.0000   0.0000   0.0000

          k = 0.0000 0.3000-0.5000 ( 24990 PWs)   bands (ev):

   -79.7365 -79.7365 -79.7365 -79.7364 -45.9840 -45.9840 -45.9840 -45.9840
   -45.9840 -45.9839 -45.9839 -45.9839 -45.9838 -45.9838 -45.9838 -45.9838
    -2.9356  -2.9356  -1.6846  -1.6846  -0.2625  -0.2625   0.8785   0.8785
     0.9730   0.9730   1.4396   1.4396   1.6593   1.6593   1.8887   1.8887
     2.3103   2.3103   2.4398   2.4398   3.4709   3.4709   3.6282   3.6282
     4.8444   4.8444   5.1162   5.1163   5.1512   5.1512   5.2427   5.2427
     5.2915   5.2916   5.4274   5.4275   8.3725   8.3725   8.3753   8.3753
     9.4473   9.4473   9.7674   9.7674  10.2355  10.2355

     occupation numbers 
     1.0000   1.0000   1.0000   1.0000   1.0000   1.0000   1.0000   1.0000
     1.0000   1.0000   1.0000   1.0000   1.0000   1.0000   1.0000   1.0000
     1.0000   1.0000   1.0000   1.0000   1.0000   1.0000   1.0000   1.0000
     1.0000   1.0000   1.0000   1.0000   1.0000   1.0000   1.0000   1.0000
     1.0000   1.0000   1.0000   1.0000   1.0000   1.0000   1.0000   1.0000
     1.0000   1.0000   1.0000   1.0000   1.0000   1.0000   1.0000   1.0000
     1.0000   1.0000   1.0000   1.0000   0.0000   0.0000   0.0000   0.0000
     0.0000   0.0000   0.0000   0.0000   0.0000   0.0000

          k = 0.0000 0.4000 0.4000 ( 24978 PWs)   bands (ev):

   -79.7365 -79.7365 -79.7365 -79.7364 -45.9840 -45.9840 -45.9840 -45.9840
   -45.9840 -45.9839 -45.9839 -45.9838 -45.9838 -45.9838 -45.9838 -45.9838
    -2.9998  -2.3513  -2.3513  -1.7354  -0.3134   0.2674   0.2674   0.8612
     0.9254   1.4085   1.4085   1.5214   1.5214   1.6056   1.6989   1.8628
     2.3336   2.3867   2.3867   2.4518   3.5660   3.5970   3.5970   3.8843
     4.9981   4.9982   5.0254   5.0325   5.1650   5.1834   5.2184   5.2185
     5.2690   5.3689   5.3689   5.3696   8.3033   8.3672   8.3672   8.9881
     9.0352   9.4318   9.4318   9.5006  10.4874  10.4874

     occupation numbers 
     1.0000   1.0000   1.0000   1.0000   1.0000   1.0000   1.0000   1.0000
     1.0000   1.0000   1.0000   1.0000   1.0000   1.0000   1.0000   1.0000
     1.0000   1.0000   1.0000   1.0000   1.0000   1.0000   1.0000   1.0000
     1.0000   1.0000   1.0000   1.0000   1.0000   1.0000   1.0000   1.0000
     1.0000   1.0000   1.0000   1.0000   1.0000   1.0000   1.0000   1.0000
     1.0000   1.0000   1.0000   1.0000   1.0000   1.0000   1.0000   1.0000
     1.0000   1.0000   1.0000   1.0000   0.0000   0.0000   0.0000   0.0000
     0.0000   0.0000   0.0000   0.0000   0.0000   0.0000

          k = 0.0000 0.4000-0.5000 ( 24986 PWs)   bands (ev):

   -79.7365 -79.7365 -79.7365 -79.7364 -45.9840 -45.9840 -45.9840 -45.9840
   -45.9840 -45.9839 -45.9839 -45.9838 -45.9838 -45.9838 -45.9838 -45.9838
    -2.7028  -2.7028  -2.0663  -2.0663  -0.0490  -0.0490   0.5425   0.5425
     1.1500   1.1500   1.5740   1.5740   1.6200   1.6200   1.6360   1.6360
     2.3680   2.3680   2.4283   2.4283   3.6515   3.6515   3.7952   3.7952
     5.0319   5.0319   5.1191   5.1191   5.1673   5.1673   5.1850   5.1851
     5.2757   5.2757   5.3588   5.3588   8.4440   8.4440   8.6082   8.6083
     9.2289   9.2289   9.2823   9.2823  10.6111  10.6111

     occupation numbers 
     1.0000   1.0000   1.0000   1.0000   1.0000   1.0000   1.0000   1.0000
     1.0000   1.0000   1.0000   1.0000   1.0000   1.0000   1.0000   1.0000
     1.0000   1.0000   1.0000   1.0000   1.0000   1.0000   1.0000   1.0000
     1.0000   1.0000   1.0000   1.0000   1.0000   1.0000   1.0000   1.0000
     1.0000   1.0000   1.0000   1.0000   1.0000   1.0000   1.0000   1.0000
     1.0000   1.0000   1.0000   1.0000   1.0000   1.0000   1.0000   1.0000
     1.0000   1.0000   1.0000   1.0000   0.0000   0.0000   0.0000   0.0000
     0.0000   0.0000   0.0000   0.0000   0.0000   0.0000

          k = 0.0000-0.5000-0.5000 ( 25036 PWs)   bands (ev):

   -79.7365 -79.7365 -79.7365 -79.7364 -45.9840 -45.9840 -45.9840 -45.9840
   -45.9839 -45.9839 -45.9839 -45.9838 -45.9838 -45.9838 -45.9838 -45.9838
    -2.4105  -2.4105  -2.4105  -2.4105   0.2240   0.2240   0.2240   0.2240
     1.3687   1.3687   1.3687   1.3687   1.6236   1.6236   1.6236   1.6237
     2.4069   2.4069   2.4069   2.4070   3.7931   3.7931   3.7931   3.7931
     5.1388   5.1388   5.1388   5.1388   5.1504   5.1504   5.1505   5.1505
     5.2878   5.2878   5.2878   5.2878   8.6181   8.6181   8.6181   8.6181
     9.0941   9.0941   9.0941   9.0942  10.9472  10.9472

     occupation numbers 
     1.0000   1.0000   1.0000   1.0000   1.0000   1.0000   1.0000   1.0000
     1.0000   1.0000   1.0000   1.0000   1.0000   1.0000   1.0000   1.0000
     1.0000   1.0000   1.0000   1.0000   1.0000   1.0000   1.0000   1.0000
     1.0000   1.0000   1.0000   1.0000   1.0000   1.0000   1.0000   1.0000
     1.0000   1.0000   1.0000   1.0000   1.0000   1.0000   1.0000   1.0000
     1.0000   1.0000   1.0000   1.0000   1.0000   1.0000   1.0000   1.0000
     1.0000   1.0000   1.0000   1.0000   0.0000   0.0000   0.0000   0.0000
     0.0000   0.0000   0.0000   0.0000   0.0000   0.0000

          k = 0.1000 0.1000 0.1000 ( 24987 PWs)   bands (ev):

   -79.7365 -79.7365 -79.7365 -79.7364 -45.9841 -45.9841 -45.9841 -45.9839
   -45.9839 -45.9839 -45.9839 -45.9839 -45.9839 -45.9838 -45.9838 -45.9838
    -3.9950  -1.5923  -1.5923  -1.5923   0.2844   0.2844   0.2844   0.7189
     0.7189   0.7189   1.8579   1.8579   1.8579   2.0227   2.0227   2.0227
     2.1543   2.1543   2.7081   2.7081   2.7081   2.8748   3.3631   3.3631
     4.2448   4.2448   4.2448   4.8045   4.8045   4.8288   5.4856   5.4856
     5.4856   5.4920   5.4920   5.4920   7.4430   7.4430   7.4430   9.4321
     9.4321   9.4321  10.4496  10.4496  10.6320  10.8932

     occupation numbers 
     1.0000   1.0000   1.0000   1.0000   1.0000   1.0000   1.0000   1.0000
     1.0000   1.0000   1.0000   1.0000   1.0000   1.0000   1.0000   1.0000
     1.0000   1.0000   1.0000   1.0000   1.0000   1.0000   1.0000   1.0000
     1.0000   1.0000   1.0000   1.0000   1.0000   1.0000   1.0000   1.0000
     1.0000   1.0000   1.0000   1.0000   1.0000   1.0000   1.0000   1.0000
     1.0000   1.0000   1.0000   1.0000   1.0000   1.0000   1.0000   1.0000
     1.0000   1.0000   1.0000   1.0000   0.0000   0.0000   0.0000   0.0000
     0.0000   0.0000   0.0000   0.0000   0.0000   0.0000

          k = 0.1000 0.1000 0.2000 ( 24941 PWs)   bands (ev):

   -79.7365 -79.7365 -79.7365 -79.7364 -45.9841 -45.9841 -45.9841 -45.9839
   -45.9839 -45.9839 -45.9839 -45.9839 -45.9839 -45.9838 -45.9838 -45.9837
    -3.8899  -1.9807  -1.4993  -1.4993   0.3063   0.3063   0.4281   0.4281
     0.5577   0.9526   1.6982   1.6982   1.9113   2.0094   2.1303   2.1303
     2.1344   2.1692   2.6066   2.6910   2.8637   2.8637   3.2032   3.4633
     4.2856   4.4388   4.4388   4.7666   4.9198   4.9344   5.4509   5.4509
     5.4708   5.4748   5.4899   5.4900   7.4883   7.6049   7.6049   9.4804
     9.6027   9.6027   9.8353  10.4785  10.5018  10.9480

     occupation numbers 
     1.0000   1.0000   1.0000   1.0000   1.0000   1.0000   1.0000   1.0000
     1.0000   1.0000   1.0000   1.0000   1.0000   1.0000   1.0000   1.0000
     1.0000   1.0000   1.0000   1.0000   1.0000   1.0000   1.0000   1.0000
     1.0000   1.0000   1.0000   1.0000   1.0000   1.0000   1.0000   1.0000
     1.0000   1.0000   1.0000   1.0000   1.0000   1.0000   1.0000   1.0000
     1.0000   1.0000   1.0000   1.0000   1.0000   1.0000   1.0000   1.0000
     1.0000   1.0000   1.0000   1.0000   0.0000   0.0000   0.0000   0.0000
     0.0000   0.0000   0.0000   0.0000   0.0000   0.0000

          k = 0.1000 0.1000 0.3000 ( 24907 PWs)   bands (ev):

   -79.7365 -79.7365 -79.7365 -79.7364 -45.9841 -45.9841 -45.9840 -45.9839
   -45.9839 -45.9839 -45.9839 -45.9839 -45.9839 -45.9838 -45.9838 -45.9838
    -3.7160  -2.4079  -1.3507  -1.3507  -0.0236  -0.0236   0.5149   0.5149
     0.7698   1.3199   1.4469   1.4469   1.7808   1.9926   2.1862   2.1980
     2.1981   2.3408   2.3658   2.6723   3.0108   3.0718   3.0718   3.4293
     4.3498   4.6809   4.6809   4.7005   5.0530   5.0831   5.3833   5.3833
     5.4416   5.4420   5.4899   5.4899   7.5872   7.8722   7.8722   9.1463
     9.5629   9.8963   9.8963  10.2576  10.5008  10.5009

     occupation numbers 
     1.0000   1.0000   1.0000   1.0000   1.0000   1.0000   1.0000   1.0000
     1.0000   1.0000   1.0000   1.0000   1.0000   1.0000   1.0000   1.0000
     1.0000   1.0000   1.0000   1.0000   1.0000   1.0000   1.0000   1.0000
     1.0000   1.0000   1.0000   1.0000   1.0000   1.0000   1.0000   1.0000
     1.0000   1.0000   1.0000   1.0000   1.0000   1.0000   1.0000   1.0000
     1.0000   1.0000   1.0000   1.0000   1.0000   1.0000   1.0000   1.0000
     1.0000   1.0000   1.0000   1.0000   0.0000   0.0000   0.0000   0.0000
     0.0000   0.0000   0.0000   0.0000   0.0000   0.0000

          k = 0.1000 0.1000 0.4000 ( 24957 PWs)   bands (ev):

   -79.7365 -79.7365 -79.7365 -79.7364 -45.9840 -45.9840 -45.9840 -45.9840
   -45.9840 -45.9839 -45.9839 -45.9839 -45.9839 -45.9838 -45.9838 -45.9838
    -3.4756  -2.8129  -1.1668  -1.1668  -0.3524  -0.3524   0.6920   0.6920
     0.9880   1.1788   1.1788   1.5093   1.6536   2.0855   2.1446   2.1907
     2.2260   2.2260   2.6433   2.6706   2.8355   3.2331   3.2332   3.2605
     4.4318   4.6167   4.9188   4.9188   5.1892   5.2162   5.2761   5.2761
     5.3865   5.3939   5.4899   5.4899   7.7725   8.2087   8.2087   8.5421
[...]
     atom    8 type  3   force =    -0.00000000   -0.00000000    0.00000000
     atom    9 type  1   force =    -0.00000000   -0.00000000   -0.00000000
     atom   10 type  1   force =    -0.00000000    0.00000000    0.00000000
     atom   11 type  1   force =     0.00000000   -0.00000000    0.00000000
     atom   12 type  1   force =     0.00000000    0.00000000   -0.00000000
     atom   13 type  2   force =     0.00000000   -3.00592336   -0.00000000
     atom   14 type  2   force =    -0.00000000   -0.00000000    3.00592336
     atom   15 type  2   force =     0.00000000   -0.00000000   -3.00592336
     atom   16 type  2   force =    -0.00000000    3.00592336   -0.00000000
     atom   17 type  2   force =    -3.00592336   -0.00000000   -0.00000000
     atom   18 type  2   force =     3.00592336    0.00000000   -0.00000000
     atom   19 type  2   force =     0.00000000   -3.00592336    0.00000000
     atom   20 type  2   force =    -0.00000000   -0.00000000    3.00592336
     atom   21 type  2   force =     0.00000000    0.00000000   -3.00592336
     atom   22 type  2   force =    -0.00000000    3.00592336   -0.00000000
     atom   23 type  2   force =    -3.00592336   -0.00000000    0.00000000
     atom   24 type  2   force =     3.00592336    0.00000000   -0.00000000
     atom   25 type  2   force =     0.00000000   -3.00592336    0.00000000
     atom   26 type  2   force =    -0.00000000   -0.00000000    3.00592336
     atom   27 type  2   force =    -0.00000000   -0.00000000   -3.00592336
     atom   28 type  2   force =    -0.00000000    3.00592336   -0.00000000
     atom   29 type  2   force =    -3.00592336   -0.00000000    0.00000000
     atom   30 type  2   force =     3.00592336    0.00000000   -0.00000000
     atom   31 type  2   force =     0.00000000   -3.00592336   -0.00000000
     atom   32 type  2   force =    -0.00000000   -0.00000000    3.00592336
     atom   33 type  2   force =    -0.00000000    0.00000000   -3.00592336
     atom   34 type  2   force =    -0.00000000    3.00592336   -0.00000000
     atom   35 type  2   force =    -3.00592336   -0.00000000   -0.00000000
     atom   36 type  2   force =     3.00592336   -0.00000000   -0.00000000
     The local contribution  to forces
     atom    1 type  3   force =    -0.00000092   -0.00000092    0.00000092
     atom    2 type  3   force =    -0.00000092   -0.00000092   -0.00000092
     atom    3 type  3   force =    -0.00000092    0.00000092   -0.00000092
     atom    4 type  3   force =    -0.00000092    0.00000092    0.00000092
     atom    5 type  3   force =     0.00000092   -0.00000092   -0.00000092
     atom    6 type  3   force =     0.00000092   -0.00000092    0.00000092
     atom    7 type  3   force =     0.00000092    0.00000092    0.00000092
     atom    8 type  3   force =     0.00000092    0.00000092   -0.00000092
     atom    9 type  1   force =     0.00000000    0.00000000    0.00000000
     atom   10 type  1   force =     0.00000000    0.00000000    0.00000000
     atom   11 type  1   force =     0.00000000    0.00000000    0.00000000
     atom   12 type  1   force =     0.00000000    0.00000000    0.00000000
     atom   13 type  2   force =    -0.00000000    2.98007005   -0.00000000
     atom   14 type  2   force =     0.00000000   -0.00000000   -2.98008232
     atom   15 type  2   force =    -0.00000000   -0.00000000    2.98008232
     atom   16 type  2   force =     0.00000000   -2.98008232    0.00000000
     atom   17 type  2   force =     2.98007005   -0.00000000    0.00000000
     atom   18 type  2   force =    -2.98007005    0.00000000    0.00000000
     atom   19 type  2   force =    -0.00000000    2.98008232   -0.00000000
     atom   20 type  2   force =     0.00000000    0.00000000   -2.98008236
     atom   21 type  2   force =    -0.00000000   -0.00000000    2.98008236
     atom   22 type  2   force =    -0.00000000   -2.98008236    0.00000000
     atom   23 type  2   force =     2.98008236   -0.00000000   -0.00000000
     atom   24 type  2   force =    -2.98008236    0.00000000    0.00000000
     atom   25 type  2   force =     0.00000000    2.98008236   -0.00000000
     atom   26 type  2   force =     0.00000000    0.00000000   -2.98007005
     atom   27 type  2   force =    -0.00000000   -0.00000000    2.98007005
     atom   28 type  2   force =     0.00000000   -2.98008232    0.00000000
     atom   29 type  2   force =     2.98008232   -0.00000000   -0.00000000
     atom   30 type  2   force =    -2.98008232    0.00000000    0.00000000
     atom   31 type  2   force =    -0.00000000    2.98008232   -0.00000000
     atom   32 type  2   force =     0.00000000    0.00000000   -2.98008232
     atom   33 type  2   force =    -0.00000000   -0.00000000    2.98008232
     atom   34 type  2   force =     0.00000000   -2.98007005    0.00000000
     atom   35 type  2   force =     2.98008232   -0.00000000    0.00000000
     atom   36 type  2   force =    -2.98008232    0.00000000    0.00000000
     The core correction contribution to forces
     atom    1 type  3   force =     0.00000010    0.00000010   -0.00000010
     atom    2 type  3   force =     0.00000010    0.00000010    0.00000010
     atom    3 type  3   force =     0.00000010   -0.00000010    0.00000010
     atom    4 type  3   force =     0.00000010   -0.00000010   -0.00000010
     atom    5 type  3   force =    -0.00000010    0.00000010    0.00000010
     atom    6 type  3   force =    -0.00000010    0.00000010   -0.00000010
     atom    7 type  3   force =    -0.00000010   -0.00000010   -0.00000010
     atom    8 type  3   force =    -0.00000010   -0.00000010    0.00000010
     atom    9 type  1   force =     0.00000000   -0.00000000    0.00000000
     atom   10 type  1   force =     0.00000000   -0.00000000   -0.00000000
     atom   11 type  1   force =    -0.00000000    0.00000000   -0.00000000
     atom   12 type  1   force =    -0.00000000   -0.00000000    0.00000000
     atom   13 type  2   force =     0.00000000    0.00000000    0.00000000
     atom   14 type  2   force =     0.00000000    0.00000000    0.00000000
     atom   15 type  2   force =     0.00000000    0.00000000    0.00000000
     atom   16 type  2   force =     0.00000000    0.00000000    0.00000000
     atom   17 type  2   force =     0.00000000    0.00000000    0.00000000
     atom   18 type  2   force =     0.00000000    0.00000000    0.00000000
     atom   19 type  2   force =     0.00000000    0.00000000    0.00000000
     atom   20 type  2   force =     0.00000000    0.00000000    0.00000000
     atom   21 type  2   force =     0.00000000    0.00000000    0.00000000
     atom   22 type  2   force =     0.00000000    0.00000000    0.00000000
     atom   23 type  2   force =     0.00000000    0.00000000    0.00000000
     atom   24 type  2   force =     0.00000000    0.00000000    0.00000000
     atom   25 type  2   force =     0.00000000    0.00000000    0.00000000
     atom   26 type  2   force =     0.00000000    0.00000000    0.00000000
     atom   27 type  2   force =     0.00000000    0.00000000    0.00000000
     atom   28 type  2   force =     0.00000000    0.00000000    0.00000000
     atom   29 type  2   force =     0.00000000    0.00000000    0.00000000
     atom   30 type  2   force =     0.00000000    0.00000000    0.00000000
     atom   31 type  2   force =     0.00000000    0.00000000    0.00000000
     atom   32 type  2   force =     0.00000000    0.00000000    0.00000000
     atom   33 type  2   force =     0.00000000    0.00000000    0.00000000
     atom   34 type  2   force =     0.00000000    0.00000000    0.00000000
     atom   35 type  2   force =     0.00000000    0.00000000    0.00000000
     atom   36 type  2   force =     0.00000000    0.00000000    0.00000000
     The Hubbard contrib.    to forces
     atom    1 type  3   force =     0.00000000    0.00000000    0.00000000
     atom    2 type  3   force =     0.00000000    0.00000000    0.00000000
     atom    3 type  3   force =     0.00000000    0.00000000    0.00000000
     atom    4 type  3   force =     0.00000000    0.00000000    0.00000000
     atom    5 type  3   force =     0.00000000    0.00000000    0.00000000
     atom    6 type  3   force =     0.00000000    0.00000000    0.00000000
     atom    7 type  3   force =     0.00000000    0.00000000    0.00000000
     atom    8 type  3   force =     0.00000000    0.00000000    0.00000000
     atom    9 type  1   force =     0.00000000    0.00000000    0.00000000
     atom   10 type  1   force =     0.00000000    0.00000000    0.00000000
     atom   11 type  1   force =     0.00000000    0.00000000    0.00000000
     atom   12 type  1   force =     0.00000000    0.00000000    0.00000000
     atom   13 type  2   force =     0.00000000    0.00000000    0.00000000
     atom   14 type  2   force =     0.00000000    0.00000000    0.00000000
     atom   15 type  2   force =     0.00000000    0.00000000    0.00000000
     atom   16 type  2   force =     0.00000000    0.00000000    0.00000000
     atom   17 type  2   force =     0.00000000    0.00000000    0.00000000
     atom   18 type  2   force =     0.00000000    0.00000000    0.00000000
     atom   19 type  2   force =     0.00000000    0.00000000    0.00000000
     atom   20 type  2   force =     0.00000000    0.00000000    0.00000000
     atom   21 type  2   force =     0.00000000    0.00000000    0.00000000
     atom   22 type  2   force =     0.00000000    0.00000000    0.00000000
     atom   23 type  2   force =     0.00000000    0.00000000    0.00000000
     atom   24 type  2   force =     0.00000000    0.00000000    0.00000000
     atom   25 type  2   force =     0.00000000    0.00000000    0.00000000
     atom   26 type  2   force =     0.00000000    0.00000000    0.00000000
     atom   27 type  2   force =     0.00000000    0.00000000    0.00000000
     atom   28 type  2   force =     0.00000000    0.00000000    0.00000000
     atom   29 type  2   force =     0.00000000    0.00000000    0.00000000
     atom   30 type  2   force =     0.00000000    0.00000000    0.00000000
     atom   31 type  2   force =     0.00000000    0.00000000    0.00000000
     atom   32 type  2   force =     0.00000000    0.00000000    0.00000000
     atom   33 type  2   force =     0.00000000    0.00000000    0.00000000
     atom   34 type  2   force =     0.00000000    0.00000000    0.00000000
     atom   35 type  2   force =     0.00000000    0.00000000    0.00000000
     atom   36 type  2   force =     0.00000000    0.00000000    0.00000000
     The SCF correction term to forces
     atom    1 type  3   force =     0.00000178    0.00000178   -0.00000178
     atom    2 type  3   force =     0.00000178    0.00000178    0.00000178
     atom    3 type  3   force =     0.00000178   -0.00000178    0.00000178
     atom    4 type  3   force =     0.00000178   -0.00000178   -0.00000178
     atom    5 type  3   force =    -0.00000178    0.00000178    0.00000178
     atom    6 type  3   force =    -0.00000178    0.00000178   -0.00000178
     atom    7 type  3   force =    -0.00000178   -0.00000178   -0.00000178
     atom    8 type  3   force =    -0.00000178   -0.00000178    0.00000178
     atom    9 type  1   force =    -0.00000000   -0.00000000    0.00000000
     atom   10 type  1   force =     0.00000000    0.00000000   -0.00000000
     atom   11 type  1   force =     0.00000000   -0.00000000   -0.00000000
     atom   12 type  1   force =     0.00000000   -0.00000000    0.00000000
     atom   13 type  2   force =     0.00000000    0.00000537    0.00000000
     atom   14 type  2   force =     0.00000000    0.00000000    0.00000459
     atom   15 type  2   force =     0.00000000    0.00000000   -0.00000459
     atom   16 type  2   force =     0.00000000    0.00000459   -0.00000000
     atom   17 type  2   force =     0.00000537   -0.00000000    0.00000000
     atom   18 type  2   force =    -0.00000537   -0.00000000    0.00000000
     atom   19 type  2   force =    -0.00000000   -0.00000459    0.00000000
     atom   20 type  2   force =     0.00000000    0.00000000    0.00000452
     atom   21 type  2   force =    -0.00000000    0.00000000   -0.00000452
     atom   22 type  2   force =    -0.00000000    0.00000452    0.00000000
     atom   23 type  2   force =    -0.00000452    0.00000000    0.00000000
     atom   24 type  2   force =     0.00000452   -0.00000000    0.00000000
     atom   25 type  2   force =    -0.00000000   -0.00000452    0.00000000
     atom   26 type  2   force =     0.00000000    0.00000000   -0.00000537
     atom   27 type  2   force =    -0.00000000   -0.00000000    0.00000537
     atom   28 type  2   force =    -0.00000000    0.00000459    0.00000000
     atom   29 type  2   force =    -0.00000459   -0.00000000    0.00000000
     atom   30 type  2   force =     0.00000459   -0.00000000    0.00000000
     atom   31 type  2   force =     0.00000000   -0.00000459    0.00000000
     atom   32 type  2   force =     0.00000000    0.00000000    0.00000459
     atom   33 type  2   force =     0.00000000   -0.00000000   -0.00000459
     atom   34 type  2   force =     0.00000000   -0.00000537    0.00000000
     atom   35 type  2   force =    -0.00000459    0.00000000   -0.00000000
     atom   36 type  2   force =     0.00000459    0.00000000    0.00000000

     Total force =     0.021607     Total SCF correction =     0.000025


     Computing stress (Cartesian axis) and pressure

          total   stress  (Ry/bohr**3)                   (kbar)     P=        0.07
   0.00000050   0.00000000   0.00000000            0.07        0.00        0.00
   0.00000000   0.00000050   0.00000000            0.00        0.07        0.00
   0.00000000   0.00000000   0.00000050            0.00        0.00        0.07

     kinetic stress (kbar)  17234.54      0.00      0.00
                                0.00  17234.54      0.00
                                0.00      0.00  17234.54

     local   stress (kbar)  -1925.35     -0.00     -0.00
                               -0.00  -1925.35     -0.00
                               -0.00     -0.00  -1925.35

     nonloc. stress (kbar) -11918.72      0.00      0.00
                                0.00 -11918.72      0.00
                                0.00      0.00 -11918.72

     hartree stress (kbar)  13890.61      0.00      0.00
                                0.00  13890.61      0.00
                                0.00      0.00  13890.61

     exc-cor stress (kbar)   -633.29      0.00     -0.00
                                0.00   -633.29     -0.00
                               -0.00     -0.00   -633.29

     corecor stress (kbar)  -3458.71     -0.00      0.00
                               -0.00  -3458.71      0.00
                                0.00      0.00  -3458.71

     ewald   stress (kbar) -13189.02     -0.00      0.00
                               -0.00 -13189.02      0.00
                                0.00      0.00 -13189.02

     hubbard stress (kbar)      0.00      0.00      0.00
                                0.00      0.00      0.00
                                0.00      0.00      0.00

     DFT-D   stress (kbar)      0.00      0.00      0.00
                                0.00      0.00      0.00
                                0.00      0.00      0.00

     XDM     stress (kbar)      0.00      0.00      0.00
                                0.00      0.00      0.00
                                0.00      0.00      0.00

     dft-nl  stress (kbar)      0.00      0.00      0.00
                                0.00      0.00      0.00
                                0.00      0.00      0.00

     TS-vdW  stress (kbar)      0.00      0.00      0.00
                                0.00      0.00      0.00
                                0.00      0.00      0.00

     MDB     stress (kbar)      0.00      0.00      0.00
                                0.00      0.00      0.00
                                0.00      0.00      0.00

     3D-RISM stress (kbar)      0.00      0.00      0.00
                                0.00      0.00      0.00
                                0.00      0.00      0.00


     Writing all to output data dir ./out/fe-kp-10.save/

     init_run     :      3.54s CPU      4.10s WALL (       1 calls)
     electrons    :     85.27s CPU     99.51s WALL (       1 calls)
     forces       :      1.14s CPU      1.29s WALL (       1 calls)
     stress       :      9.23s CPU      9.43s WALL (       1 calls)

     Called by init_run:
     wfcinit      :      2.56s CPU      2.89s WALL (       1 calls)
     wfcinit:atom :      0.04s CPU      0.04s WALL (      28 calls)
     wfcinit:wfcr :      2.35s CPU      2.68s WALL (      28 calls)
     potinit      :      0.35s CPU      0.42s WALL (       1 calls)
     hinit0       :      0.23s CPU      0.26s WALL (       1 calls)

     Called by electrons:
     c_bands      :     72.39s CPU     83.44s WALL (      14 calls)
     sum_band     :     10.21s CPU     12.15s WALL (      14 calls)
     v_of_rho     :      0.71s CPU      0.83s WALL (      15 calls)
     v_h          :      0.08s CPU      0.09s WALL (      15 calls)
     v_xc         :      0.72s CPU      0.84s WALL (      17 calls)
     newd         :      1.32s CPU      1.76s WALL (      15 calls)
     PAW_pot      :      0.56s CPU      1.08s WALL (      15 calls)
     mix_rho      :      0.10s CPU      0.12s WALL (      14 calls)

     Called by c_bands:
     init_us_2    :      1.19s CPU      1.27s WALL (     868 calls)
     init_us_2:cp :      1.19s CPU      1.26s WALL (     868 calls)
     cegterg      :     69.23s CPU     77.66s WALL (     392 calls)

     Called by sum_band:
     sum_band:wei :      0.01s CPU      0.01s WALL (      14 calls)
     sum_band:loo :      8.64s CPU      9.92s WALL (      14 calls)
     sum_band:buf :      0.18s CPU      0.19s WALL (     392 calls)
     sum_band:ini :      0.44s CPU      0.46s WALL (     392 calls)
     sum_band:cal :      1.49s CPU      1.71s WALL (     392 calls)
     sum_band:bec :      0.05s CPU      0.05s WALL (     392 calls)
     addusdens    :      1.46s CPU      2.05s WALL (      14 calls)
                                        0.00s GPU  (      14 calls)
     addusd:skk   :      0.07s CPU      0.07s WALL (      42 calls)
                                        0.00s GPU  (      42 calls)

     Called by *egterg:
     cdiaghg      :      9.12s CPU      9.56s WALL (    1969 calls)
     cegterg:over :      3.53s CPU      3.97s WALL (    1577 calls)
     cegterg:upda :      2.09s CPU      2.16s WALL (    1577 calls)
     cegterg:last :      4.54s CPU      4.56s WALL (     947 calls)
     h_psi        :     46.11s CPU     53.55s WALL (    1997 calls)
     s_psi        :      3.79s CPU      3.83s WALL (    1997 calls)
     g_psi        :      0.13s CPU      0.13s WALL (    1577 calls)

     Called by h_psi:
     h_psi:calbec :      5.97s CPU      6.80s WALL (    1997 calls)
     vloc_psi     :     35.75s CPU     42.21s WALL (    1997 calls)
     add_vuspsi   :      3.99s CPU      4.11s WALL (    1997 calls)

     General routines
     calbec       :      7.93s CPU      9.12s WALL (    2529 calls)
     fft          :      0.56s CPU      0.71s WALL (     218 calls)
     ffts         :      0.16s CPU      0.17s WALL (      29 calls)
     fftw         :     34.81s CPU     41.08s WALL (  169996 calls)
     interpolate  :      0.19s CPU      0.21s WALL (      15 calls)

     Parallel routines

     PAW routines
     PAW_pot      :      0.56s CPU      1.08s WALL (      15 calls)
     PAW_symme    :      0.02s CPU      0.02s WALL (      29 calls)

     PWSCF        :   1m39.94s CPU   1m58.56s WALL


   This run was terminated on:  22:26: 4  13Jun2025            

=------------------------------------------------------------------------------=
   JOB DONE.
=------------------------------------------------------------------------------=
