
     Program PWSCF v.7.2 starts on 13Jun2025 at 22:26: 5 

     This program is part of the open-source Quantum ESPRESSO suite
     for quantum simulation of materials; please cite
         "P. Giannozzi et al., J. Phys.:Condens. Matter 21 395502 (2009);
         "P. Giannozzi et al., J. Phys.:Condens. Matter 29 465901 (2017);
         "P. Giannozzi et al., J. Chem. Phys. 152 154105 (2020);
          URL http://www.quantum-espresso.org", 
     in publications or presentations arising from this work. More details at
     http://www.quantum-espresso.org/quote

     Parallel version (MPI & OpenMP), running on      64 processor cores
     Number of MPI processes:                64
     Threads/MPI process:                     1

     MPI processes distributed on     1 nodes
     239837 MiB available memory on the printing compute node when the environment starts

     Reading input from fe_kp_11.in

     Current dimensions of program PWSCF are:
     Max number of different atomic species (ntypx) = 10
     Max number of k-points (npk) =  40000
     Max angular momentum in pseudopotentials (lmaxx) =  4
     file Fe.pbesol-spn-kjpaw_psl.0.2.1.UPF: wavefunction(s)  3D renormalized
     file Mg.pbesol-n-kjpaw_psl.0.3.0.UPF: wavefunction(s)  3S renormalized
     Found identity + (  0.0000  0.5000 -0.5000) symmetry
     This is a supercell, fractional translations are disabled
     Message from routine setup:
     using ibrav=0 with symmetry is DISCOURAGED, use correct ibrav instead

     K-points division:     npool     =       2
     R & G space division:  proc/nbgrp/npool/nimage =      32
     Subspace diagonalization in iterative solution of the eigenvalue problem:
     a serial algorithm will be used


     Parallelization info
     --------------------
     sticks:   dense  smooth     PW     G-vecs:    dense   smooth      PW
     Min         387     129     34                32439     6247     882
     Max         388     130     35                32443     6250     887
     Sum       12393    4149   1117              1038085   199949   28353

     Using Slab Decomposition



     bravais-lattice index     =            0
     lattice parameter (alat)  =      12.0093  a.u.
     unit-cell volume          =    1732.0312 (a.u.)^3
     number of atoms/cell      =           36
     number of atomic types    =            3
     number of electrons       =       104.00
     number of Kohn-Sham states=           62
     kinetic-energy cutoff     =      90.0000  Ry
     charge density cutoff     =    1080.0000  Ry
     scf convergence threshold =      7.2E-09
     mixing beta               =       0.4000
     number of iterations used =            8  plain     mixing
     Exchange-correlation= SLA  PW   PSX  PSC
                           (   1   4  10   8   0   0   0)

     celldm(1)=  12.009324  celldm(2)=   0.000000  celldm(3)=   0.000000
     celldm(4)=   0.000000  celldm(5)=   0.000000  celldm(6)=   0.000000

     crystal axes: (cart. coord. in units of alat)
               a(1) = (   1.000000   0.000000   0.000000 )  
               a(2) = (   0.000000   1.000000   0.000000 )  
               a(3) = (   0.000000   0.000000   1.000000 )  

     reciprocal axes: (cart. coord. in units 2 pi/alat)
               b(1) = (  1.000000  0.000000  0.000000 )  
               b(2) = (  0.000000  1.000000  0.000000 )  
               b(3) = (  0.000000  0.000000  1.000000 )  


     PseudoPot. # 1 for Fe read from file:
     ./pseudo/Fe.pbesol-spn-kjpaw_psl.0.2.1.UPF
     MD5 check sum: 4d7ec5aa2156491519a4322664fbbf52
     Pseudo is Projector augmented-wave + core cor, Zval = 16.0
     Generated using "atomic" code by A. Dal Corso  v.6.0 svn rev. 13079
     Shape of augmentation charge: PSQ
     Using radial grid of 1191 points,  6 beta functions with: 
                l(1) =   0
                l(2) =   0
                l(3) =   1
                l(4) =   1
                l(5) =   2
                l(6) =   2
     Q(r) pseudized with 0 coefficients 


     PseudoPot. # 2 for H  read from file:
     ./pseudo/H.pbesol-rrkjus_psl.1.0.0.UPF
     MD5 check sum: 0324ed591cc0147dc3d88cad0d33f665
     Pseudo is Ultrasoft, Zval =  1.0
     Generated using "atomic" code by A. Dal Corso  v.6.0 svn rev. 13079
     Using radial grid of  929 points,  2 beta functions with: 
                l(1) =   0
                l(2) =   0
     Q(r) pseudized with 0 coefficients 


     PseudoPot. # 3 for Mg read from file:
     ./pseudo/Mg.pbesol-n-kjpaw_psl.0.3.0.UPF
     MD5 check sum: a6c8d2ff726a5f7005dea00130d82930
     Pseudo is Projector augmented-wave + core cor, Zval =  2.0
     Generated using "atomic" code by A. Dal Corso  v.6.1 svn rev. 13369
     Shape of augmentation charge: PSQ
     Using radial grid of 1129 points,  4 beta functions with: 
                l(1) =   0
                l(2) =   0
                l(3) =   1
                l(4) =   1
     Q(r) pseudized with 0 coefficients 


     atomic species   valence    mass     pseudopotential
        Fe            16.00    55.84500     Fe( 1.00)
        H              1.00     1.00794     H ( 1.00)
        Mg             2.00    24.30500     Mg( 1.00)

     48 Sym. Ops., with inversion, found


                                    s                        frac. trans.

      isym =  1     identity                                     

 cryst.   s( 1) = (     1          0          0      )
                  (     0          1          0      )
                  (     0          0          1      )

 cart.    s( 1) = (  1.0000000  0.0000000  0.0000000 )
                  (  0.0000000  1.0000000  0.0000000 )
                  (  0.0000000  0.0000000  1.0000000 )


      isym =  2     180 deg rotation - cart. axis [0,0,1]        

 cryst.   s( 2) = (    -1          0          0      )
                  (     0         -1          0      )
                  (     0          0          1      )

 cart.    s( 2) = ( -1.0000000  0.0000000  0.0000000 )
                  (  0.0000000 -1.0000000  0.0000000 )
                  (  0.0000000  0.0000000  1.0000000 )


      isym =  3     180 deg rotation - cart. axis [0,1,0]        

 cryst.   s( 3) = (    -1          0          0      )
                  (     0          1          0      )
                  (     0          0         -1      )

 cart.    s( 3) = ( -1.0000000  0.0000000  0.0000000 )
                  (  0.0000000  1.0000000  0.0000000 )
                  (  0.0000000  0.0000000 -1.0000000 )


      isym =  4     180 deg rotation - cart. axis [1,0,0]        

 cryst.   s( 4) = (     1          0          0      )
                  (     0         -1          0      )
                  (     0          0         -1      )

 cart.    s( 4) = (  1.0000000  0.0000000  0.0000000 )
                  (  0.0000000 -1.0000000  0.0000000 )
                  (  0.0000000  0.0000000 -1.0000000 )


      isym =  5     180 deg rotation - cart. axis [1,1,0]        

 cryst.   s( 5) = (     0          1          0      )
                  (     1          0          0      )
                  (     0          0         -1      )

 cart.    s( 5) = (  0.0000000  1.0000000  0.0000000 )
                  (  1.0000000  0.0000000  0.0000000 )
                  (  0.0000000  0.0000000 -1.0000000 )


      isym =  6     180 deg rotation - cart. axis [1,-1,0]       

 cryst.   s( 6) = (     0         -1          0      )
                  (    -1          0          0      )
                  (     0          0         -1      )

 cart.    s( 6) = (  0.0000000 -1.0000000  0.0000000 )
                  ( -1.0000000  0.0000000  0.0000000 )
                  (  0.0000000  0.0000000 -1.0000000 )


      isym =  7      90 deg rotation - cart. axis [0,0,-1]       

 cryst.   s( 7) = (     0         -1          0      )
                  (     1          0          0      )
                  (     0          0          1      )

 cart.    s( 7) = (  0.0000000  1.0000000  0.0000000 )
                  ( -1.0000000  0.0000000  0.0000000 )
                  (  0.0000000  0.0000000  1.0000000 )


      isym =  8      90 deg rotation - cart. axis [0,0,1]        

 cryst.   s( 8) = (     0          1          0      )
                  (    -1          0          0      )
                  (     0          0          1      )

 cart.    s( 8) = (  0.0000000 -1.0000000  0.0000000 )
                  (  1.0000000  0.0000000  0.0000000 )
                  (  0.0000000  0.0000000  1.0000000 )


      isym =  9     180 deg rotation - cart. axis [1,0,1]        

 cryst.   s( 9) = (     0          0          1      )
                  (     0         -1          0      )
                  (     1          0          0      )

 cart.    s( 9) = (  0.0000000  0.0000000  1.0000000 )
                  (  0.0000000 -1.0000000  0.0000000 )
                  (  1.0000000  0.0000000  0.0000000 )


      isym = 10     180 deg rotation - cart. axis [-1,0,1]       

 cryst.   s(10) = (     0          0         -1      )
                  (     0         -1          0      )
                  (    -1          0          0      )

 cart.    s(10) = (  0.0000000  0.0000000 -1.0000000 )
                  (  0.0000000 -1.0000000  0.0000000 )
                  ( -1.0000000  0.0000000  0.0000000 )


      isym = 11      90 deg rotation - cart. axis [0,1,0]        

 cryst.   s(11) = (     0          0         -1      )
                  (     0          1          0      )
                  (     1          0          0      )

 cart.    s(11) = (  0.0000000  0.0000000  1.0000000 )
                  (  0.0000000  1.0000000  0.0000000 )
                  ( -1.0000000  0.0000000  0.0000000 )


      isym = 12      90 deg rotation - cart. axis [0,-1,0]       

 cryst.   s(12) = (     0          0          1      )
                  (     0          1          0      )
                  (    -1          0          0      )

 cart.    s(12) = (  0.0000000  0.0000000 -1.0000000 )
                  (  0.0000000  1.0000000  0.0000000 )
                  (  1.0000000  0.0000000  0.0000000 )


      isym = 13     180 deg rotation - cart. axis [0,1,1]        

 cryst.   s(13) = (    -1          0          0      )
                  (     0          0          1      )
                  (     0          1          0      )

 cart.    s(13) = ( -1.0000000  0.0000000  0.0000000 )
                  (  0.0000000  0.0000000  1.0000000 )
                  (  0.0000000  1.0000000  0.0000000 )


      isym = 14     180 deg rotation - cart. axis [0,1,-1]       

 cryst.   s(14) = (    -1          0          0      )
                  (     0          0         -1      )
                  (     0         -1          0      )

 cart.    s(14) = ( -1.0000000  0.0000000  0.0000000 )
                  (  0.0000000  0.0000000 -1.0000000 )
                  (  0.0000000 -1.0000000  0.0000000 )


      isym = 15      90 deg rotation - cart. axis [-1,0,0]       

 cryst.   s(15) = (     1          0          0      )
                  (     0          0         -1      )
                  (     0          1          0      )

 cart.    s(15) = (  1.0000000  0.0000000  0.0000000 )
                  (  0.0000000  0.0000000  1.0000000 )
                  (  0.0000000 -1.0000000  0.0000000 )


      isym = 16      90 deg rotation - cart. axis [1,0,0]        

 cryst.   s(16) = (     1          0          0      )
                  (     0          0          1      )
                  (     0         -1          0      )

 cart.    s(16) = (  1.0000000  0.0000000  0.0000000 )
                  (  0.0000000  0.0000000 -1.0000000 )
                  (  0.0000000  1.0000000  0.0000000 )


      isym = 17     120 deg rotation - cart. axis [-1,-1,-1]     

 cryst.   s(17) = (     0          0          1      )
                  (     1          0          0      )
                  (     0          1          0      )

 cart.    s(17) = (  0.0000000  1.0000000  0.0000000 )
                  (  0.0000000  0.0000000  1.0000000 )
                  (  1.0000000  0.0000000  0.0000000 )


      isym = 18     120 deg rotation - cart. axis [-1,1,1]       

 cryst.   s(18) = (     0          0         -1      )
                  (    -1          0          0      )
                  (     0          1          0      )

 cart.    s(18) = (  0.0000000 -1.0000000  0.0000000 )
                  (  0.0000000  0.0000000  1.0000000 )
                  ( -1.0000000  0.0000000  0.0000000 )


      isym = 19     120 deg rotation - cart. axis [1,1,-1]       

 cryst.   s(19) = (     0          0         -1      )
                  (     1          0          0      )
                  (     0         -1          0      )

 cart.    s(19) = (  0.0000000  1.0000000  0.0000000 )
                  (  0.0000000  0.0000000 -1.0000000 )
                  ( -1.0000000  0.0000000  0.0000000 )


      isym = 20     120 deg rotation - cart. axis [1,-1,1]       

 cryst.   s(20) = (     0          0          1      )
                  (    -1          0          0      )
                  (     0         -1          0      )

 cart.    s(20) = (  0.0000000 -1.0000000  0.0000000 )
                  (  0.0000000  0.0000000 -1.0000000 )
                  (  1.0000000  0.0000000  0.0000000 )


      isym = 21     120 deg rotation - cart. axis [1,1,1]        

 cryst.   s(21) = (     0          1          0      )
                  (     0          0          1      )
                  (     1          0          0      )

 cart.    s(21) = (  0.0000000  0.0000000  1.0000000 )
                  (  1.0000000  0.0000000  0.0000000 )
                  (  0.0000000  1.0000000  0.0000000 )


      isym = 22     120 deg rotation - cart. axis [-1,1,-1]      

 cryst.   s(22) = (     0         -1          0      )
                  (     0          0         -1      )
                  (     1          0          0      )

 cart.    s(22) = (  0.0000000  0.0000000  1.0000000 )
                  ( -1.0000000  0.0000000  0.0000000 )
                  (  0.0000000 -1.0000000  0.0000000 )


      isym = 23     120 deg rotation - cart. axis [1,-1,-1]      

 cryst.   s(23) = (     0         -1          0      )
                  (     0          0          1      )
                  (    -1          0          0      )

 cart.    s(23) = (  0.0000000  0.0000000 -1.0000000 )
                  ( -1.0000000  0.0000000  0.0000000 )
                  (  0.0000000  1.0000000  0.0000000 )


      isym = 24     120 deg rotation - cart. axis [-1,-1,1]      

 cryst.   s(24) = (     0          1          0      )
                  (     0          0         -1      )
                  (    -1          0          0      )

 cart.    s(24) = (  0.0000000  0.0000000 -1.0000000 )
                  (  1.0000000  0.0000000  0.0000000 )
                  (  0.0000000 -1.0000000  0.0000000 )


      isym = 25     inversion                                    

 cryst.   s(25) = (    -1          0          0      )
                  (     0         -1          0      )
                  (     0          0         -1      )

 cart.    s(25) = ( -1.0000000  0.0000000  0.0000000 )
                  (  0.0000000 -1.0000000  0.0000000 )
                  (  0.0000000  0.0000000 -1.0000000 )


      isym = 26     inv. 180 deg rotation - cart. axis [0,0,1]   

 cryst.   s(26) = (     1          0          0      )
                  (     0          1          0      )
                  (     0          0         -1      )

 cart.    s(26) = (  1.0000000  0.0000000  0.0000000 )
                  (  0.0000000  1.0000000  0.0000000 )
                  (  0.0000000  0.0000000 -1.0000000 )


      isym = 27     inv. 180 deg rotation - cart. axis [0,1,0]   

 cryst.   s(27) = (     1          0          0      )
                  (     0         -1          0      )
                  (     0          0          1      )

 cart.    s(27) = (  1.0000000  0.0000000  0.0000000 )
                  (  0.0000000 -1.0000000  0.0000000 )
                  (  0.0000000  0.0000000  1.0000000 )


      isym = 28     inv. 180 deg rotation - cart. axis [1,0,0]   

 cryst.   s(28) = (    -1          0          0      )
                  (     0          1          0      )
                  (     0          0          1      )

 cart.    s(28) = ( -1.0000000  0.0000000  0.0000000 )
                  (  0.0000000  1.0000000  0.0000000 )
                  (  0.0000000  0.0000000  1.0000000 )


      isym = 29     inv. 180 deg rotation - cart. axis [1,1,0]   

 cryst.   s(29) = (     0         -1          0      )
                  (    -1          0          0      )
                  (     0          0          1      )

 cart.    s(29) = (  0.0000000 -1.0000000  0.0000000 )
                  ( -1.0000000  0.0000000  0.0000000 )
                  (  0.0000000  0.0000000  1.0000000 )


      isym = 30     inv. 180 deg rotation - cart. axis [1,-1,0]  

 cryst.   s(30) = (     0          1          0      )
                  (     1          0          0      )
                  (     0          0          1      )

 cart.    s(30) = (  0.0000000  1.0000000  0.0000000 )
                  (  1.0000000  0.0000000  0.0000000 )
                  (  0.0000000  0.0000000  1.0000000 )


      isym = 31     inv.  90 deg rotation - cart. axis [0,0,-1]  

 cryst.   s(31) = (     0          1          0      )
                  (    -1          0          0      )
                  (     0          0         -1      )

 cart.    s(31) = (  0.0000000 -1.0000000  0.0000000 )
                  (  1.0000000  0.0000000  0.0000000 )
                  (  0.0000000  0.0000000 -1.0000000 )


      isym = 32     inv.  90 deg rotation - cart. axis [0,0,1]   

 cryst.   s(32) = (     0         -1          0      )
                  (     1          0          0      )
                  (     0          0         -1      )

 cart.    s(32) = (  0.0000000  1.0000000  0.0000000 )
                  ( -1.0000000  0.0000000  0.0000000 )
                  (  0.0000000  0.0000000 -1.0000000 )


      isym = 33     inv. 180 deg rotation - cart. axis [1,0,1]   

 cryst.   s(33) = (     0          0         -1      )
                  (     0          1          0      )
                  (    -1          0          0      )

 cart.    s(33) = (  0.0000000  0.0000000 -1.0000000 )
                  (  0.0000000  1.0000000  0.0000000 )
                  ( -1.0000000  0.0000000  0.0000000 )


      isym = 34     inv. 180 deg rotation - cart. axis [-1,0,1]  

 cryst.   s(34) = (     0          0          1      )
                  (     0          1          0      )
                  (     1          0          0      )

 cart.    s(34) = (  0.0000000  0.0000000  1.0000000 )
                  (  0.0000000  1.0000000  0.0000000 )
                  (  1.0000000  0.0000000  0.0000000 )


      isym = 35     inv.  90 deg rotation - cart. axis [0,1,0]   

 cryst.   s(35) = (     0          0          1      )
                  (     0         -1          0      )
                  (    -1          0          0      )

 cart.    s(35) = (  0.0000000  0.0000000 -1.0000000 )
                  (  0.0000000 -1.0000000  0.0000000 )
                  (  1.0000000  0.0000000  0.0000000 )


      isym = 36     inv.  90 deg rotation - cart. axis [0,-1,0]  

 cryst.   s(36) = (     0          0         -1      )
                  (     0         -1          0      )
                  (     1          0          0      )

 cart.    s(36) = (  0.0000000  0.0000000  1.0000000 )
                  (  0.0000000 -1.0000000  0.0000000 )
                  ( -1.0000000  0.0000000  0.0000000 )


      isym = 37     inv. 180 deg rotation - cart. axis [0,1,1]   

 cryst.   s(37) = (     1          0          0      )
                  (     0          0         -1      )
                  (     0         -1          0      )

 cart.    s(37) = (  1.0000000  0.0000000  0.0000000 )
                  (  0.0000000  0.0000000 -1.0000000 )
                  (  0.0000000 -1.0000000  0.0000000 )


      isym = 38     inv. 180 deg rotation - cart. axis [0,1,-1]  

 cryst.   s(38) = (     1          0          0      )
                  (     0          0          1      )
                  (     0          1          0      )

 cart.    s(38) = (  1.0000000  0.0000000  0.0000000 )
                  (  0.0000000  0.0000000  1.0000000 )
                  (  0.0000000  1.0000000  0.0000000 )


      isym = 39     inv.  90 deg rotation - cart. axis [-1,0,0]  

 cryst.   s(39) = (    -1          0          0      )
                  (     0          0          1      )
                  (     0         -1          0      )

 cart.    s(39) = ( -1.0000000  0.0000000  0.0000000 )
                  (  0.0000000  0.0000000 -1.0000000 )
                  (  0.0000000  1.0000000  0.0000000 )


      isym = 40     inv.  90 deg rotation - cart. axis [1,0,0]   

 cryst.   s(40) = (    -1          0          0      )
                  (     0          0         -1      )
                  (     0          1          0      )

 cart.    s(40) = ( -1.0000000  0.0000000  0.0000000 )
                  (  0.0000000  0.0000000  1.0000000 )
                  (  0.0000000 -1.0000000  0.0000000 )


      isym = 41     inv. 120 deg rotation - cart. axis [-1,-1,-1]

 cryst.   s(41) = (     0          0         -1      )
                  (    -1          0          0      )
                  (     0         -1          0      )

 cart.    s(41) = (  0.0000000 -1.0000000  0.0000000 )
                  (  0.0000000  0.0000000 -1.0000000 )
                  ( -1.0000000  0.0000000  0.0000000 )


      isym = 42     inv. 120 deg rotation - cart. axis [-1,1,1]  

 cryst.   s(42) = (     0          0          1      )
                  (     1          0          0      )
                  (     0         -1          0      )

 cart.    s(42) = (  0.0000000  1.0000000  0.0000000 )
                  (  0.0000000  0.0000000 -1.0000000 )
                  (  1.0000000  0.0000000  0.0000000 )


      isym = 43     inv. 120 deg rotation - cart. axis [1,1,-1]  

 cryst.   s(43) = (     0          0          1      )
                  (    -1          0          0      )
                  (     0          1          0      )

 cart.    s(43) = (  0.0000000 -1.0000000  0.0000000 )
                  (  0.0000000  0.0000000  1.0000000 )
                  (  1.0000000  0.0000000  0.0000000 )


      isym = 44     inv. 120 deg rotation - cart. axis [1,-1,1]  

 cryst.   s(44) = (     0          0         -1      )
                  (     1          0          0      )
                  (     0          1          0      )

 cart.    s(44) = (  0.0000000  1.0000000  0.0000000 )
                  (  0.0000000  0.0000000  1.0000000 )
                  ( -1.0000000  0.0000000  0.0000000 )


      isym = 45     inv. 120 deg rotation - cart. axis [1,1,1]   

 cryst.   s(45) = (     0         -1          0      )
                  (     0          0         -1      )
                  (    -1          0          0      )

 cart.    s(45) = (  0.0000000  0.0000000 -1.0000000 )
                  ( -1.0000000  0.0000000  0.0000000 )
                  (  0.0000000 -1.0000000  0.0000000 )


      isym = 46     inv. 120 deg rotation - cart. axis [-1,1,-1] 

 cryst.   s(46) = (     0          1          0      )
                  (     0          0          1      )
                  (    -1          0          0      )

 cart.    s(46) = (  0.0000000  0.0000000 -1.0000000 )
                  (  1.0000000  0.0000000  0.0000000 )
                  (  0.0000000  1.0000000  0.0000000 )


      isym = 47     inv. 120 deg rotation - cart. axis [1,-1,-1] 

 cryst.   s(47) = (     0          1          0      )
                  (     0          0         -1      )
                  (     1          0          0      )

 cart.    s(47) = (  0.0000000  0.0000000  1.0000000 )
                  (  1.0000000  0.0000000  0.0000000 )
                  (  0.0000000 -1.0000000  0.0000000 )


      isym = 48     inv. 120 deg rotation - cart. axis [-1,-1,1] 

 cryst.   s(48) = (     0         -1          0      )
                  (     0          0          1      )
                  (     1          0          0      )

 cart.    s(48) = (  0.0000000  0.0000000  1.0000000 )
                  ( -1.0000000  0.0000000  0.0000000 )
                  (  0.0000000  1.0000000  0.0000000 )


   Cartesian axes

     site n.     atom                  positions (alat units)
         1           Mg  tau(   1) = (   0.7500000   0.7500000   0.2500000  )
         2           Mg  tau(   2) = (   0.7500000   0.7500000   0.7500000  )
         3           Mg  tau(   3) = (   0.7500000   0.2500000   0.7500000  )
         4           Mg  tau(   4) = (   0.7500000   0.2500000   0.2500000  )
         5           Mg  tau(   5) = (   0.2500000   0.7500000   0.7500000  )
         6           Mg  tau(   6) = (   0.2500000   0.7500000   0.2500000  )
         7           Mg  tau(   7) = (   0.2500000   0.2500000   0.2500000  )
         8           Mg  tau(   8) = (   0.2500000   0.2500000   0.7500000  )
         9           Fe  tau(   9) = (   0.0000000   0.0000000   0.0000000  )
        10           Fe  tau(  10) = (   0.0000000   0.5000000   0.5000000  )
        11           Fe  tau(  11) = (   0.5000000   0.0000000   0.5000000  )
        12           Fe  tau(  12) = (   0.5000000   0.5000000   0.0000000  )
        13           H   tau(  13) = (   0.0000000   0.7570260   0.0000000  )
        14           H   tau(  14) = (   0.5000000   0.0000000   0.7429740  )
        15           H   tau(  15) = (   0.5000000   0.0000000   0.2570260  )
        16           H   tau(  16) = (   0.5000000   0.7429740   0.0000000  )
        17           H   tau(  17) = (   0.7570260   0.0000000   0.0000000  )
        18           H   tau(  18) = (   0.2429740   0.0000000   0.0000000  )
        19           H   tau(  19) = (   0.0000000   0.2570260   0.5000000  )
        20           H   tau(  20) = (   0.5000000   0.5000000   0.2429740  )
        21           H   tau(  21) = (   0.5000000   0.5000000   0.7570260  )
        22           H   tau(  22) = (   0.5000000   0.2429740   0.5000000  )
        23           H   tau(  23) = (   0.7570260   0.5000000   0.5000000  )
        24           H   tau(  24) = (   0.2429740   0.5000000   0.5000000  )
        25           H   tau(  25) = (   0.5000000   0.7570260   0.5000000  )
        26           H   tau(  26) = (   0.0000000   0.0000000   0.2429740  )
        27           H   tau(  27) = (   0.0000000   0.0000000   0.7570260  )
        28           H   tau(  28) = (   0.0000000   0.7429740   0.5000000  )
        29           H   tau(  29) = (   0.2570260   0.0000000   0.5000000  )
        30           H   tau(  30) = (   0.7429740   0.0000000   0.5000000  )
        31           H   tau(  31) = (   0.5000000   0.2570260   0.0000000  )
        32           H   tau(  32) = (   0.0000000   0.5000000   0.7429740  )
        33           H   tau(  33) = (   0.0000000   0.5000000   0.2570260  )
        34           H   tau(  34) = (   0.0000000   0.2429740   0.0000000  )
        35           H   tau(  35) = (   0.2570260   0.5000000   0.0000000  )
        36           H   tau(  36) = (   0.7429740   0.5000000   0.0000000  )

   Crystallographic axes

     site n.     atom                  positions (cryst. coord.)
         1           Mg  tau(   1) = (  0.7500000  0.7500000  0.2500000  )
         2           Mg  tau(   2) = (  0.7500000  0.7500000  0.7500000  )
         3           Mg  tau(   3) = (  0.7500000  0.2500000  0.7500000  )
         4           Mg  tau(   4) = (  0.7500000  0.2500000  0.2500000  )
         5           Mg  tau(   5) = (  0.2500000  0.7500000  0.7500000  )
         6           Mg  tau(   6) = (  0.2500000  0.7500000  0.2500000  )
         7           Mg  tau(   7) = (  0.2500000  0.2500000  0.2500000  )
         8           Mg  tau(   8) = (  0.2500000  0.2500000  0.7500000  )
         9           Fe  tau(   9) = (  0.0000000  0.0000000  0.0000000  )
        10           Fe  tau(  10) = (  0.0000000  0.5000000  0.5000000  )
        11           Fe  tau(  11) = (  0.5000000  0.0000000  0.5000000  )
        12           Fe  tau(  12) = (  0.5000000  0.5000000  0.0000000  )
        13           H   tau(  13) = (  0.0000000  0.7570260  0.0000000  )
        14           H   tau(  14) = (  0.5000000  0.0000000  0.7429740  )
        15           H   tau(  15) = (  0.5000000  0.0000000  0.2570260  )
        16           H   tau(  16) = (  0.5000000  0.7429740  0.0000000  )
        17           H   tau(  17) = (  0.7570260  0.0000000  0.0000000  )
        18           H   tau(  18) = (  0.2429740  0.0000000  0.0000000  )
        19           H   tau(  19) = (  0.0000000  0.2570260  0.5000000  )
        20           H   tau(  20) = (  0.5000000  0.5000000  0.2429740  )
        21           H   tau(  21) = (  0.5000000  0.5000000  0.7570260  )
        22           H   tau(  22) = (  0.5000000  0.2429740  0.5000000  )
        23           H   tau(  23) = (  0.7570260  0.5000000  0.5000000  )
        24           H   tau(  24) = (  0.2429740  0.5000000  0.5000000  )
        25           H   tau(  25) = (  0.5000000  0.7570260  0.5000000  )
        26           H   tau(  26) = (  0.0000000  0.0000000  0.2429740  )
        27           H   tau(  27) = (  0.0000000  0.0000000  0.7570260  )
        28           H   tau(  28) = (  0.0000000  0.7429740  0.5000000  )
        29           H   tau(  29) = (  0.2570260  0.0000000  0.5000000  )
        30           H   tau(  30) = (  0.7429740  0.0000000  0.5000000  )
        31           H   tau(  31) = (  0.5000000  0.2570260  0.0000000  )
        32           H   tau(  32) = (  0.0000000  0.5000000  0.7429740  )
        33           H   tau(  33) = (  0.0000000  0.5000000  0.2570260  )
        34           H   tau(  34) = (  0.0000000  0.2429740  0.0000000  )
        35           H   tau(  35) = (  0.2570260  0.5000000  0.0000000  )
        36           H   tau(  36) = (  0.7429740  0.5000000  0.0000000  )

     number of k points=    56  Gaussian smearing, width (Ry)=  0.0200
                       cart. coord. in units 2pi/alat
        k(    1) = (   0.0000000   0.0000000   0.0000000), wk =   0.0015026
        k(    2) = (   0.0000000   0.0000000   0.0909091), wk =   0.0090158
        k(    3) = (   0.0000000   0.0000000   0.1818182), wk =   0.0090158
        k(    4) = (   0.0000000   0.0000000   0.2727273), wk =   0.0090158
        k(    5) = (   0.0000000   0.0000000   0.3636364), wk =   0.0090158
        k(    6) = (   0.0000000   0.0000000   0.4545455), wk =   0.0090158
        k(    7) = (   0.0000000   0.0909091   0.0909091), wk =   0.0180316
        k(    8) = (   0.0000000   0.0909091   0.1818182), wk =   0.0360631
        k(    9) = (   0.0000000   0.0909091   0.2727273), wk =   0.0360631
        k(   10) = (   0.0000000   0.0909091   0.3636364), wk =   0.0360631
        k(   11) = (   0.0000000   0.0909091   0.4545455), wk =   0.0360631
        k(   12) = (   0.0000000   0.1818182   0.1818182), wk =   0.0180316
        k(   13) = (   0.0000000   0.1818182   0.2727273), wk =   0.0360631
        k(   14) = (   0.0000000   0.1818182   0.3636364), wk =   0.0360631
        k(   15) = (   0.0000000   0.1818182   0.4545455), wk =   0.0360631
        k(   16) = (   0.0000000   0.2727273   0.2727273), wk =   0.0180316
        k(   17) = (   0.0000000   0.2727273   0.3636364), wk =   0.0360631
        k(   18) = (   0.0000000   0.2727273   0.4545455), wk =   0.0360631
        k(   19) = (   0.0000000   0.3636364   0.3636364), wk =   0.0180316
        k(   20) = (   0.0000000   0.3636364   0.4545455), wk =   0.0360631
        k(   21) = (   0.0000000   0.4545455   0.4545455), wk =   0.0180316
        k(   22) = (   0.0909091   0.0909091   0.0909091), wk =   0.0120210
        k(   23) = (   0.0909091   0.0909091   0.1818182), wk =   0.0360631
        k(   24) = (   0.0909091   0.0909091   0.2727273), wk =   0.0360631
        k(   25) = (   0.0909091   0.0909091   0.3636364), wk =   0.0360631
        k(   26) = (   0.0909091   0.0909091   0.4545455), wk =   0.0360631
        k(   27) = (   0.0909091   0.1818182   0.1818182), wk =   0.0360631
        k(   28) = (   0.0909091   0.1818182   0.2727273), wk =   0.0721262
        k(   29) = (   0.0909091   0.1818182   0.3636364), wk =   0.0721262
        k(   30) = (   0.0909091   0.1818182   0.4545455), wk =   0.0721262
        k(   31) = (   0.0909091   0.2727273   0.2727273), wk =   0.0360631
        k(   32) = (   0.0909091   0.2727273   0.3636364), wk =   0.0721262
        k(   33) = (   0.0909091   0.2727273   0.4545455), wk =   0.0721262
        k(   34) = (   0.0909091   0.3636364   0.3636364), wk =   0.0360631
        k(   35) = (   0.0909091   0.3636364   0.4545455), wk =   0.0721262
        k(   36) = (   0.0909091   0.4545455   0.4545455), wk =   0.0360631
        k(   37) = (   0.1818182   0.1818182   0.1818182), wk =   0.0120210
        k(   38) = (   0.1818182   0.1818182   0.2727273), wk =   0.0360631
        k(   39) = (   0.1818182   0.1818182   0.3636364), wk =   0.0360631
        k(   40) = (   0.1818182   0.1818182   0.4545455), wk =   0.0360631
        k(   41) = (   0.1818182   0.2727273   0.2727273), wk =   0.0360631
        k(   42) = (   0.1818182   0.2727273   0.3636364), wk =   0.0721262
        k(   43) = (   0.1818182   0.2727273   0.4545455), wk =   0.0721262
        k(   44) = (   0.1818182   0.3636364   0.3636364), wk =   0.0360631
        k(   45) = (   0.1818182   0.3636364   0.4545455), wk =   0.0721262
        k(   46) = (   0.1818182   0.4545455   0.4545455), wk =   0.0360631
        k(   47) = (   0.2727273   0.2727273   0.2727273), wk =   0.0120210
        k(   48) = (   0.2727273   0.2727273   0.3636364), wk =   0.0360631
        k(   49) = (   0.2727273   0.2727273   0.4545455), wk =   0.0360631
        k(   50) = (   0.2727273   0.3636364   0.3636364), wk =   0.0360631
        k(   51) = (   0.2727273   0.3636364   0.4545455), wk =   0.0721262
        k(   52) = (   0.2727273   0.4545455   0.4545455), wk =   0.0360631
        k(   53) = (   0.3636364   0.3636364   0.3636364), wk =   0.0120210
        k(   54) = (   0.3636364   0.3636364   0.4545455), wk =   0.0360631
        k(   55) = (   0.3636364   0.4545455   0.4545455), wk =   0.0360631
        k(   56) = (   0.4545455   0.4545455   0.4545455), wk =   0.0120210

                       cryst. coord.
        k(    1) = (   0.0000000   0.0000000   0.0000000), wk =   0.0015026
        k(    2) = (   0.0000000   0.0000000   0.0909091), wk =   0.0090158
        k(    3) = (   0.0000000   0.0000000   0.1818182), wk =   0.0090158
        k(    4) = (   0.0000000   0.0000000   0.2727273), wk =   0.0090158
        k(    5) = (   0.0000000   0.0000000   0.3636364), wk =   0.0090158
        k(    6) = (   0.0000000   0.0000000   0.4545455), wk =   0.0090158
        k(    7) = (   0.0000000   0.0909091   0.0909091), wk =   0.0180316
        k(    8) = (   0.0000000   0.0909091   0.1818182), wk =   0.0360631
        k(    9) = (   0.0000000   0.0909091   0.2727273), wk =   0.0360631
        k(   10) = (   0.0000000   0.0909091   0.3636364), wk =   0.0360631
        k(   11) = (   0.0000000   0.0909091   0.4545455), wk =   0.0360631
        k(   12) = (   0.0000000   0.1818182   0.1818182), wk =   0.0180316
        k(   13) = (   0.0000000   0.1818182   0.2727273), wk =   0.0360631
        k(   14) = (   0.0000000   0.1818182   0.3636364), wk =   0.0360631
        k(   15) = (   0.0000000   0.1818182   0.4545455), wk =   0.0360631
        k(   16) = (   0.0000000   0.2727273   0.2727273), wk =   0.0180316
        k(   17) = (   0.0000000   0.2727273   0.3636364), wk =   0.0360631
        k(   18) = (   0.0000000   0.2727273   0.4545455), wk =   0.0360631
        k(   19) = (   0.0000000   0.3636364   0.3636364), wk =   0.0180316
        k(   20) = (   0.0000000   0.3636364   0.4545455), wk =   0.0360631
        k(   21) = (   0.0000000   0.4545455   0.4545455), wk =   0.0180316
        k(   22) = (   0.0909091   0.0909091   0.0909091), wk =   0.0120210
        k(   23) = (   0.0909091   0.0909091   0.1818182), wk =   0.0360631
        k(   24) = (   0.0909091   0.0909091   0.2727273), wk =   0.0360631
        k(   25) = (   0.0909091   0.0909091   0.3636364), wk =   0.0360631
        k(   26) = (   0.0909091   0.0909091   0.4545455), wk =   0.0360631
        k(   27) = (   0.0909091   0.1818182   0.1818182), wk =   0.0360631
        k(   28) = (   0.0909091   0.1818182   0.2727273), wk =   0.0721262
        k(   29) = (   0.0909091   0.1818182   0.3636364), wk =   0.0721262
        k(   30) = (   0.0909091   0.1818182   0.4545455), wk =   0.0721262
        k(   31) = (   0.0909091   0.2727273   0.2727273), wk =   0.0360631
        k(   32) = (   0.0909091   0.2727273   0.3636364), wk =   0.0721262
        k(   33) = (   0.0909091   0.2727273   0.4545455), wk =   0.0721262
        k(   34) = (   0.0909091   0.3636364   0.3636364), wk =   0.0360631
        k(   35) = (   0.0909091   0.3636364   0.4545455), wk =   0.0721262
        k(   36) = (   0.0909091   0.4545455   0.4545455), wk =   0.0360631
        k(   37) = (   0.1818182   0.1818182   0.1818182), wk =   0.0120210
        k(   38) = (   0.1818182   0.1818182   0.2727273), wk =   0.0360631
        k(   39) = (   0.1818182   0.1818182   0.3636364), wk =   0.0360631
        k(   40) = (   0.1818182   0.1818182   0.4545455), wk =   0.0360631
        k(   41) = (   0.1818182   0.2727273   0.2727273), wk =   0.0360631
        k(   42) = (   0.1818182   0.2727273   0.3636364), wk =   0.0721262
        k(   43) = (   0.1818182   0.2727273   0.4545455), wk =   0.0721262
        k(   44) = (   0.1818182   0.3636364   0.3636364), wk =   0.0360631
        k(   45) = (   0.1818182   0.3636364   0.4545455), wk =   0.0721262
        k(   46) = (   0.1818182   0.4545455   0.4545455), wk =   0.0360631
        k(   47) = (   0.2727273   0.2727273   0.2727273), wk =   0.0120210
        k(   48) = (   0.2727273   0.2727273   0.3636364), wk =   0.0360631
        k(   49) = (   0.2727273   0.2727273   0.4545455), wk =   0.0360631
        k(   50) = (   0.2727273   0.3636364   0.3636364), wk =   0.0360631
        k(   51) = (   0.2727273   0.3636364   0.4545455), wk =   0.0721262
        k(   52) = (   0.2727273   0.4545455   0.4545455), wk =   0.0360631
        k(   53) = (   0.3636364   0.3636364   0.3636364), wk =   0.0120210
        k(   54) = (   0.3636364   0.3636364   0.4545455), wk =   0.0360631
        k(   55) = (   0.3636364   0.4545455   0.4545455), wk =   0.0360631
        k(   56) = (   0.4545455   0.4545455   0.4545455), wk =   0.0120210

     Dense  grid:  1038085 G-vectors     FFT dimensions: ( 125, 125, 125)

     Smooth grid:   199949 G-vectors     FFT dimensions: (  75,  75,  75)

     Dynamical RAM for                 wfc:       0.74 MB

     Dynamical RAM for     wfc (w. buffer):      21.40 MB

     Dynamical RAM for           str. fact:       1.49 MB

     Dynamical RAM for           local pot:       0.00 MB

     Dynamical RAM for          nlocal pot:       2.19 MB

     Dynamical RAM for                qrad:       7.91 MB

     Dynamical RAM for          rho,v,vnew:       2.92 MB

     Dynamical RAM for               rhoin:       0.97 MB

     Dynamical RAM for            rho*nmix:       7.92 MB

     Dynamical RAM for           G-vectors:       1.90 MB

     Dynamical RAM for          h,s,v(r/c):       0.70 MB

     Dynamical RAM for          <psi|beta>:       0.17 MB

     Dynamical RAM for                 psi:       1.48 MB

     Dynamical RAM for                hpsi:       1.48 MB

     Dynamical RAM for                spsi:       1.48 MB

     Dynamical RAM for      wfcinit/wfcrot:       2.84 MB

     Dynamical RAM for           addusdens:      52.23 MB

     Dynamical RAM for          addusforce:      63.70 MB

     Dynamical RAM for         addusstress:      49.87 MB

     Estimated static dynamical RAM per process >      43.14 MB

     Estimated max dynamical RAM per process >     114.76 MB

     Estimated total dynamical RAM >       6.93 GB

     Check: negative core charge=   -0.000001

     Initial potential from superposition of free atoms

     starting charge     103.9909, renormalised to     104.0000
     Starting wfcs are  108 randomized atomic wfcs
     Checking if some PAW data can be deallocated... 
       PAW data deallocated on   56 nodes for type:  1
       PAW data deallocated on   48 nodes for type:  3

     total cpu time spent up to now is        4.3 secs

     Self-consistent Calculation

     iteration #  1     ecut=    90.00 Ry     beta= 0.40
     Davidson diagonalization with overlap

---- Real-time Memory Report at c_bands before calling an iterative solver
           123 MiB given to the printing process from OS
             0 MiB allocation reported by mallinfo(arena+hblkhd)
        236091 MiB available memory on the node where the printing process lives
------------------
     ethr =  1.00E-02,  avg # of iterations =  2.0

     total cpu time spent up to now is       10.4 secs

     total energy              =   -1596.63384870 Ry
     estimated scf accuracy    <       4.50869709 Ry

     iteration #  2     ecut=    90.00 Ry     beta= 0.40
     Davidson diagonalization with overlap

---- Real-time Memory Report at c_bands before calling an iterative solver
           165 MiB given to the printing process from OS
             0 MiB allocation reported by mallinfo(arena+hblkhd)
        235182 MiB available memory on the node where the printing process lives
------------------
     ethr =  4.34E-03,  avg # of iterations =  4.6

     total cpu time spent up to now is       17.4 secs

     total energy              =   -1596.04553618 Ry
     estimated scf accuracy    <      18.36659029 Ry

     iteration #  3     ecut=    90.00 Ry     beta= 0.40
     Davidson diagonalization with overlap

---- Real-time Memory Report at c_bands before calling an iterative solver
           168 MiB given to the printing process from OS
             0 MiB allocation reported by mallinfo(arena+hblkhd)
        235151 MiB available memory on the node where the printing process lives
------------------
     ethr =  4.34E-03,  avg # of iterations =  3.9

     total cpu time spent up to now is       23.6 secs

     total energy              =   -1597.88936026 Ry
     estimated scf accuracy    <       0.45694349 Ry

     iteration #  4     ecut=    90.00 Ry     beta= 0.40
     Davidson diagonalization with overlap

---- Real-time Memory Report at c_bands before calling an iterative solver
           169 MiB given to the printing process from OS
             0 MiB allocation reported by mallinfo(arena+hblkhd)
        235156 MiB available memory on the node where the printing process lives
------------------
     ethr =  4.39E-04,  avg # of iterations =  2.7

     total cpu time spent up to now is       29.7 secs

     total energy              =   -1597.97228261 Ry
     estimated scf accuracy    <       0.03448574 Ry

     iteration #  5     ecut=    90.00 Ry     beta= 0.40
     Davidson diagonalization with overlap

---- Real-time Memory Report at c_bands before calling an iterative solver
           170 MiB given to the printing process from OS
             0 MiB allocation reported by mallinfo(arena+hblkhd)
        235156 MiB available memory on the node where the printing process lives
------------------
     ethr =  3.32E-05,  avg # of iterations =  5.4

     total cpu time spent up to now is       37.4 secs

     total energy              =   -1597.98138688 Ry
     estimated scf accuracy    <       0.00217880 Ry

     iteration #  6     ecut=    90.00 Ry     beta= 0.40
     Davidson diagonalization with overlap

---- Real-time Memory Report at c_bands before calling an iterative solver
           170 MiB given to the printing process from OS
             0 MiB allocation reported by mallinfo(arena+hblkhd)
        235155 MiB available memory on the node where the printing process lives
------------------
     ethr =  2.10E-06,  avg # of iterations =  6.6

     total cpu time spent up to now is       46.4 secs

     total energy              =   -1597.98200179 Ry
     estimated scf accuracy    <       0.00186682 Ry

     iteration #  7     ecut=    90.00 Ry     beta= 0.40
     Davidson diagonalization with overlap

---- Real-time Memory Report at c_bands before calling an iterative solver
           171 MiB given to the printing process from OS
             0 MiB allocation reported by mallinfo(arena+hblkhd)
        235146 MiB available memory on the node where the printing process lives
------------------
     ethr =  1.80E-06,  avg # of iterations =  2.5

     total cpu time spent up to now is       51.8 secs

     total energy              =   -1597.98207050 Ry
     estimated scf accuracy    <       0.00142267 Ry

     iteration #  8     ecut=    90.00 Ry     beta= 0.40
     Davidson diagonalization with overlap

---- Real-time Memory Report at c_bands before calling an iterative solver
           171 MiB given to the printing process from OS
             0 MiB allocation reported by mallinfo(arena+hblkhd)
        235134 MiB available memory on the node where the printing process lives
------------------
     ethr =  1.37E-06,  avg # of iterations =  2.3

     total cpu time spent up to now is       57.1 secs

     total energy              =   -1597.98221327 Ry
     estimated scf accuracy    <       0.00008860 Ry

     iteration #  9     ecut=    90.00 Ry     beta= 0.40
     Davidson diagonalization with overlap

---- Real-time Memory Report at c_bands before calling an iterative solver
           172 MiB given to the printing process from OS
             0 MiB allocation reported by mallinfo(arena+hblkhd)
        235127 MiB available memory on the node where the printing process lives
------------------
     ethr =  8.52E-08,  avg # of iterations =  5.2

     total cpu time spent up to now is       65.2 secs

     total energy              =   -1597.98224618 Ry
     estimated scf accuracy    <       0.00007266 Ry

     iteration # 10     ecut=    90.00 Ry     beta= 0.40
     Davidson diagonalization with overlap

---- Real-time Memory Report at c_bands before calling an iterative solver
           172 MiB given to the printing process from OS
             0 MiB allocation reported by mallinfo(arena+hblkhd)
        235121 MiB available memory on the node where the printing process lives
------------------
     ethr =  6.99E-08,  avg # of iterations =  1.0

     total cpu time spent up to now is       69.7 secs

     total energy              =   -1597.98224259 Ry
     estimated scf accuracy    <       0.00002330 Ry

     iteration # 11     ecut=    90.00 Ry     beta= 0.40
     Davidson diagonalization with overlap

---- Real-time Memory Report at c_bands before calling an iterative solver
           172 MiB given to the printing process from OS
             0 MiB allocation reported by mallinfo(arena+hblkhd)
        235114 MiB available memory on the node where the printing process lives
------------------
     ethr =  2.24E-08,  avg # of iterations =  2.5

     total cpu time spent up to now is       75.2 secs

     total energy              =   -1597.98224632 Ry
     estimated scf accuracy    <       0.00000129 Ry

     iteration # 12     ecut=    90.00 Ry     beta= 0.40
     Davidson diagonalization with overlap

---- Real-time Memory Report at c_bands before calling an iterative solver
           173 MiB given to the printing process from OS
             0 MiB allocation reported by mallinfo(arena+hblkhd)
        235114 MiB available memory on the node where the printing process lives
------------------
     ethr =  1.24E-09,  avg # of iterations =  7.9

     total cpu time spent up to now is       86.1 secs

     total energy              =   -1597.98224785 Ry
     estimated scf accuracy    <       0.00000147 Ry

     iteration # 13     ecut=    90.00 Ry     beta= 0.40
     Davidson diagonalization with overlap

---- Real-time Memory Report at c_bands before calling an iterative solver
           173 MiB given to the printing process from OS
             0 MiB allocation reported by mallinfo(arena+hblkhd)
        235080 MiB available memory on the node where the printing process lives
------------------
     ethr =  1.24E-09,  avg # of iterations =  2.2

     total cpu time spent up to now is       91.3 secs

     total energy              =   -1597.98224794 Ry
     estimated scf accuracy    <       0.00000008 Ry

     iteration # 14     ecut=    90.00 Ry     beta= 0.40
     Davidson diagonalization with overlap

---- Real-time Memory Report at c_bands before calling an iterative solver
           173 MiB given to the printing process from OS
             0 MiB allocation reported by mallinfo(arena+hblkhd)
        235082 MiB available memory on the node where the printing process lives
------------------
     ethr =  7.31E-11,  avg # of iterations =  6.9

     total cpu time spent up to now is      100.5 secs

     total energy              =   -1597.98224800 Ry
     estimated scf accuracy    <       0.00000003 Ry

     iteration # 15     ecut=    90.00 Ry     beta= 0.40
     Davidson diagonalization with overlap

---- Real-time Memory Report at c_bands before calling an iterative solver
           173 MiB given to the printing process from OS
             0 MiB allocation reported by mallinfo(arena+hblkhd)
        235089 MiB available memory on the node where the printing process lives
------------------
     ethr =  2.95E-11,  avg # of iterations =  2.5

     total cpu time spent up to now is      106.0 secs

     End of self-consistent calculation

          k = 0.0000 0.0000 0.0000 ( 24885 PWs)   bands (ev):

   -79.7364 -79.7364 -79.7364 -79.7364 -45.9840 -45.9840 -45.9840 -45.9838
   -45.9838 -45.9838 -45.9838 -45.9838 -45.9838 -45.9837 -45.9837 -45.9837
    -4.1007  -1.4712  -1.4712  -1.4712   0.0615   0.0615   0.0615   0.9923
     0.9923   0.9923   1.8993   1.8993   1.8993   1.8993   1.8993   1.8993
     2.2235   2.2235   2.6062   2.6062   2.6062   3.3349   3.3349   3.3349
     4.0625   4.0625   4.0625   4.7280   4.7280   4.7280   5.5055   5.5055
     5.5055   5.5055   5.5055   5.5055   7.3168   7.3168   7.3168   9.3097
     9.3097   9.3097  10.8012  10.8012  10.8012  10.8974

     occupation numbers 
     1.0000   1.0000   1.0000   1.0000   1.0000   1.0000   1.0000   1.0000
     1.0000   1.0000   1.0000   1.0000   1.0000   1.0000   1.0000   1.0000
     1.0000   1.0000   1.0000   1.0000   1.0000   1.0000   1.0000   1.0000
     1.0000   1.0000   1.0000   1.0000   1.0000   1.0000   1.0000   1.0000
     1.0000   1.0000   1.0000   1.0000   1.0000   1.0000   1.0000   1.0000
     1.0000   1.0000   1.0000   1.0000   1.0000   1.0000   1.0000   1.0000
     1.0000   1.0000   1.0000   1.0000   0.0000   0.0000   0.0000   0.0000
     0.0000   0.0000   0.0000   0.0000   0.0000   0.0000

          k = 0.0000 0.0000 0.0909 ( 25033 PWs)   bands (ev):

   -79.7364 -79.7364 -79.7364 -79.7364 -45.9840 -45.9840 -45.9840 -45.9838
   -45.9838 -45.9838 -45.9838 -45.9838 -45.9838 -45.9837 -45.9837 -45.9837
    -4.0715  -1.6267  -1.4451  -1.4451   0.0849   0.0849   0.2073   0.8495
     0.8495   1.0492   1.8245   1.8245   1.9177   1.9177   1.9789   1.9789
     2.1763   2.2308   2.5980   2.6563   2.6563   3.2766   3.2766   3.3268
     4.0752   4.1379   4.1379   4.7139   4.7755   4.7755   5.4956   5.4956
     5.5014   5.5014   5.5055   5.5055   7.3283   7.3658   7.3658   9.3224
     9.3519   9.3519  10.5865  10.7081  10.8513  10.9083

     occupation numbers 
     1.0000   1.0000   1.0000   1.0000   1.0000   1.0000   1.0000   1.0000
     1.0000   1.0000   1.0000   1.0000   1.0000   1.0000   1.0000   1.0000
     1.0000   1.0000   1.0000   1.0000   1.0000   1.0000   1.0000   1.0000
     1.0000   1.0000   1.0000   1.0000   1.0000   1.0000   1.0000   1.0000
     1.0000   1.0000   1.0000   1.0000   1.0000   1.0000   1.0000   1.0000
     1.0000   1.0000   1.0000   1.0000   1.0000   1.0000   1.0000   1.0000
     1.0000   1.0000   1.0000   1.0000   0.0000   0.0000   0.0000   0.0000
     0.0000   0.0000   0.0000   0.0000   0.0000   0.0000

          k = 0.0000 0.0000 0.1818 ( 25028 PWs)   bands (ev):

   -79.7364 -79.7364 -79.7364 -79.7364 -45.9840 -45.9840 -45.9840 -45.9838
   -45.9838 -45.9838 -45.9838 -45.9838 -45.9838 -45.9837 -45.9837 -45.9837
    -3.9844  -1.9687  -1.3675  -1.3675   0.1547   0.1547   0.4956   0.5449
     0.5449   1.2399   1.6322   1.6322   1.9728   1.9728   2.0465   2.0947
     2.0947   2.2523   2.5741   2.8019   2.8019   3.1273   3.1273   3.2910
     4.1127   4.3296   4.3296   4.6727   4.8923   4.8923   5.4648   5.4648
     5.4884   5.4884   5.5055   5.5055   7.3675   7.5140   7.5140   9.3610
     9.4816   9.4816   9.9552  10.4931  10.9414  11.0025

     occupation numbers 
     1.0000   1.0000   1.0000   1.0000   1.0000   1.0000   1.0000   1.0000
     1.0000   1.0000   1.0000   1.0000   1.0000   1.0000   1.0000   1.0000
     1.0000   1.0000   1.0000   1.0000   1.0000   1.0000   1.0000   1.0000
     1.0000   1.0000   1.0000   1.0000   1.0000   1.0000   1.0000   1.0000
     1.0000   1.0000   1.0000   1.0000   1.0000   1.0000   1.0000   1.0000
     1.0000   1.0000   1.0000   1.0000   1.0000   1.0000   1.0000   1.0000
     1.0000   1.0000   1.0000   1.0000   0.0000   0.0000   0.0000   0.0000
     0.0000   0.0000   0.0000   0.0000   0.0000   0.0000

          k = 0.0000 0.0000 0.2727 ( 24972 PWs)   bands (ev):

   -79.7364 -79.7364 -79.7364 -79.7364 -45.9840 -45.9840 -45.9840 -45.9838
   -45.9838 -45.9838 -45.9838 -45.9838 -45.9838 -45.9837 -45.9837 -45.9837
    -3.8400  -2.3578  -1.2417  -1.2417   0.2043   0.2043   0.2698   0.2698
     0.7571   1.3808   1.3808   1.5800   1.8603   2.0635   2.0635   2.1614
     2.1614   2.2864   2.5369   2.9323   2.9323   2.9931   2.9931   3.2019
     4.1722   4.5723   4.5723   4.6083   5.0332   5.0332   5.4089   5.4089
     5.4639   5.4639   5.5056   5.5056   7.4491   7.7612   7.7612   9.2857
     9.4271   9.7067   9.7067  10.2469  10.7958  10.7959

     occupation numbers 
     1.0000   1.0000   1.0000   1.0000   1.0000   1.0000   1.0000   1.0000
     1.0000   1.0000   1.0000   1.0000   1.0000   1.0000   1.0000   1.0000
     1.0000   1.0000   1.0000   1.0000   1.0000   1.0000   1.0000   1.0000
     1.0000   1.0000   1.0000   1.0000   1.0000   1.0000   1.0000   1.0000
     1.0000   1.0000   1.0000   1.0000   1.0000   1.0000   1.0000   1.0000
     1.0000   1.0000   1.0000   1.0000   1.0000   1.0000   1.0000   1.0000
     1.0000   1.0000   1.0000   1.0000   0.0000   0.0000   0.0000   0.0000
     0.0000   0.0000   0.0000   0.0000   0.0000   0.0000

          k = 0.0000 0.0000 0.3636 ( 24976 PWs)   bands (ev):

   -79.7364 -79.7364 -79.7364 -79.7364 -45.9840 -45.9840 -45.9839 -45.9839
   -45.9839 -45.9838 -45.9838 -45.9838 -45.9838 -45.9838 -45.9837 -45.9837
    -3.6399  -2.7369  -1.0771  -1.0771  -0.1174  -0.1174   0.4280   0.4280
     0.9787   1.1139   1.1139   1.6438   2.0023   2.1879   2.1879   2.1923
     2.1923   2.3308   2.4897   2.7248   2.7248   3.0339   3.1569   3.1569
     4.2496   4.5263   4.8146   4.8146   5.1670   5.1670   5.3217   5.3217
     5.4238   5.4238   5.5056   5.5056   7.5962   8.0893   8.0893   8.6839
     9.5230  10.0155  10.0357  10.0357  10.2069  10.2069

     occupation numbers 
     1.0000   1.0000   1.0000   1.0000   1.0000   1.0000   1.0000   1.0000
     1.0000   1.0000   1.0000   1.0000   1.0000   1.0000   1.0000   1.0000
     1.0000   1.0000   1.0000   1.0000   1.0000   1.0000   1.0000   1.0000
     1.0000   1.0000   1.0000   1.0000   1.0000   1.0000   1.0000   1.0000
     1.0000   1.0000   1.0000   1.0000   1.0000   1.0000   1.0000   1.0000
     1.0000   1.0000   1.0000   1.0000   1.0000   1.0000   1.0000   1.0000
     1.0000   1.0000   1.0000   1.0000   0.0000   0.0000   0.0000   0.0000
     0.0000   0.0000   0.0000   0.0000   0.0000   0.0000

          k = 0.0000 0.0000 0.4545 ( 24972 PWs)   bands (ev):

   -79.7364 -79.7364 -79.7364 -79.7364 -45.9839 -45.9839 -45.9839 -45.9839
   -45.9839 -45.9838 -45.9838 -45.9838 -45.9837 -45.9837 -45.9837 -45.9837
    -3.3865  -3.0835  -0.9140  -0.9139  -0.3624  -0.3624   0.6256   0.6256
     0.8572   0.8572   1.1946   1.4176   2.2045   2.2045   2.3431   2.3431
     2.3822   2.4184   2.4366   2.5245   2.5245   2.7716   3.2479   3.2479
     4.3392   4.4340   5.0268   5.0268   5.1961   5.1961   5.2785   5.2785
     5.3635   5.3635   5.5057   5.5057   7.8368   8.1960   8.4030   8.4030
     9.6517   9.7484   9.7484   9.8156  10.4726  10.4726

     occupation numbers 
     1.0000   1.0000   1.0000   1.0000   1.0000   1.0000   1.0000   1.0000
     1.0000   1.0000   1.0000   1.0000   1.0000   1.0000   1.0000   1.0000
     1.0000   1.0000   1.0000   1.0000   1.0000   1.0000   1.0000   1.0000
     1.0000   1.0000   1.0000   1.0000   1.0000   1.0000   1.0000   1.0000
     1.0000   1.0000   1.0000   1.0000   1.0000   1.0000   1.0000   1.0000
     1.0000   1.0000   1.0000   1.0000   1.0000   1.0000   1.0000   1.0000
     1.0000   1.0000   1.0000   1.0000   0.0000   0.0000   0.0000   0.0000
     0.0000   0.0000   0.0000   0.0000   0.0000   0.0000

          k = 0.0000 0.0909 0.0909 ( 24993 PWs)   bands (ev):

   -79.7364 -79.7364 -79.7364 -79.7364 -45.9840 -45.9840 -45.9840 -45.9838
   -45.9838 -45.9838 -45.9838 -45.9838 -45.9838 -45.9837 -45.9837 -45.9837
    -4.0424  -1.6003  -1.6003  -1.4193   0.1083   0.2292   0.2292   0.7091
     0.9024   0.9024   1.8432   1.8432   1.8486   1.9759   2.0002   2.0002
     2.1606   2.2069   2.6500   2.6500   2.6972   3.1368   3.2182   3.4134
     4.1501   4.1501   4.2046   4.7460   4.7776   4.8125   5.4917   5.4917
     5.4928   5.4987   5.5013   5.5013   7.3768   7.3768   7.4113   9.3648
     9.3648   9.3970  10.4956  10.6966  10.7321  10.8263

     occupation numbers 
     1.0000   1.0000   1.0000   1.0000   1.0000   1.0000   1.0000   1.0000
     1.0000   1.0000   1.0000   1.0000   1.0000   1.0000   1.0000   1.0000
     1.0000   1.0000   1.0000   1.0000   1.0000   1.0000   1.0000   1.0000
     1.0000   1.0000   1.0000   1.0000   1.0000   1.0000   1.0000   1.0000
     1.0000   1.0000   1.0000   1.0000   1.0000   1.0000   1.0000   1.0000
     1.0000   1.0000   1.0000   1.0000   1.0000   1.0000   1.0000   1.0000
     1.0000   1.0000   1.0000   1.0000   0.0000   0.0000   0.0000   0.0000
     0.0000   0.0000   0.0000   0.0000   0.0000   0.0000

          k = 0.0000 0.0909 0.1818 ( 24990 PWs)   bands (ev):

   -79.7364 -79.7364 -79.7364 -79.7364 -45.9840 -45.9840 -45.9840 -45.9838
   -45.9838 -45.9838 -45.9838 -45.9838 -45.9838 -45.9837 -45.9837 -45.9837
    -3.9553  -1.9420  -1.5221  -1.3430   0.1780   0.2912   0.4063   0.5076
     0.5980   1.0838   1.6517   1.7064   1.8992   2.0447   2.0659   2.0798
     2.1153   2.2108   2.6330   2.8017   2.8254   2.9496   3.0682   3.4468
     4.1859   4.3403   4.3761   4.7176   4.8845   4.9099   5.4612   5.4642
     5.4790   5.4880   5.4972   5.5011   7.4147   7.5236   7.5488   9.4040
     9.4951   9.5352   9.9565  10.5210  10.7080  10.9490

     occupation numbers 
     1.0000   1.0000   1.0000   1.0000   1.0000   1.0000   1.0000   1.0000
     1.0000   1.0000   1.0000   1.0000   1.0000   1.0000   1.0000   1.0000
     1.0000   1.0000   1.0000   1.0000   1.0000   1.0000   1.0000   1.0000
     1.0000   1.0000   1.0000   1.0000   1.0000   1.0000   1.0000   1.0000
     1.0000   1.0000   1.0000   1.0000   1.0000   1.0000   1.0000   1.0000
     1.0000   1.0000   1.0000   1.0000   1.0000   1.0000   1.0000   1.0000
     1.0000   1.0000   1.0000   1.0000   0.0000   0.0000   0.0000   0.0000
     0.0000   0.0000   0.0000   0.0000   0.0000   0.0000

          k = 0.0000 0.0909 0.2727 ( 24934 PWs)   bands (ev):

   -79.7364 -79.7364 -79.7364 -79.7364 -45.9840 -45.9840 -45.9840 -45.9838
   -45.9838 -45.9838 -45.9838 -45.9838 -45.9838 -45.9837 -45.9837 -45.9837
    -3.8111  -2.3305  -1.3946  -1.2207   0.0677   0.2239   0.2928   0.4324
     0.7491   1.3992   1.4010   1.4789   1.8571   1.9913   2.1578   2.1783
     2.1809   2.2293   2.6134   2.7588   2.8714   2.9998   3.0075   3.3952
     4.2427   4.5810   4.5978   4.6572   5.0260   5.0367   5.4057   5.4091
     5.4550   5.4630   5.4976   5.5007   7.4941   7.7679   7.7780   9.3053
     9.4711   9.7211   9.7731  10.2862  10.7336  10.7487

     occupation numbers 
     1.0000   1.0000   1.0000   1.0000   1.0000   1.0000   1.0000   1.0000
     1.0000   1.0000   1.0000   1.0000   1.0000   1.0000   1.0000   1.0000
     1.0000   1.0000   1.0000   1.0000   1.0000   1.0000   1.0000   1.0000
     1.0000   1.0000   1.0000   1.0000   1.0000   1.0000   1.0000   1.0000
     1.0000   1.0000   1.0000   1.0000   1.0000   1.0000   1.0000   1.0000
     1.0000   1.0000   1.0000   1.0000   1.0000   1.0000   1.0000   1.0000
     1.0000   1.0000   1.0000   1.0000   0.0000   0.0000   0.0000   0.0000
     0.0000   0.0000   0.0000   0.0000   0.0000   0.0000

          k = 0.0000 0.0909 0.3636 ( 24968 PWs)   bands (ev):

   -79.7364 -79.7364 -79.7364 -79.7364 -45.9840 -45.9839 -45.9839 -45.9839
   -45.9839 -45.9838 -45.9838 -45.9838 -45.9838 -45.9838 -45.9837 -45.9837
    -3.6112  -2.7092  -1.2251  -1.0670  -0.2449  -0.0916   0.4506   0.5736
     0.9581   1.1349   1.2289   1.6338   1.7406   2.1176   2.1959   2.2059
     2.2366   2.3368   2.5856   2.6243   2.6616   3.1683   3.1703   3.2544
     4.3165   4.5797   4.8212   4.8251   5.1613   5.1635   5.3192   5.3230
     5.4155   5.4221   5.4982   5.5002   7.6379   8.0833   8.0902   8.7113
     9.5680  10.0511  10.0596  10.1157  10.1471  10.1842

     occupation numbers 
     1.0000   1.0000   1.0000   1.0000   1.0000   1.0000   1.0000   1.0000
     1.0000   1.0000   1.0000   1.0000   1.0000   1.0000   1.0000   1.0000
     1.0000   1.0000   1.0000   1.0000   1.0000   1.0000   1.0000   1.0000
     1.0000   1.0000   1.0000   1.0000   1.0000   1.0000   1.0000   1.0000
     1.0000   1.0000   1.0000   1.0000   1.0000   1.0000   1.0000   1.0000
     1.0000   1.0000   1.0000   1.0000   1.0000   1.0000   1.0000   1.0000
     1.0000   1.0000   1.0000   1.0000   0.0000   0.0000   0.0000   0.0000
     0.0000   0.0000   0.0000   0.0000   0.0000   0.0000

          k = 0.0000 0.0909 0.4545 ( 24981 PWs)   bands (ev):

   -79.7364 -79.7364 -79.7364 -79.7364 -45.9839 -45.9839 -45.9839 -45.9839
   -45.9839 -45.9838 -45.9838 -45.9838 -45.9838 -45.9837 -45.9837 -45.9837
    -3.3581  -3.0554  -1.0389  -0.9518  -0.4436  -0.3578   0.6478   0.7628
     0.8789   0.9848   1.1721   1.3998   2.0083   2.1792   2.2123   2.2152
     2.2750   2.4320   2.4589   2.4728   2.7764   3.0326   3.2617   3.2622
     4.4019   4.4920   5.0291   5.0313   5.1950   5.1989   5.2722   5.2743
     5.3560   5.3607   5.4989   5.4995   7.8745   8.2290   8.3805   8.3910
     9.6975   9.7075   9.7300   9.8614  10.4887  10.5663

     occupation numbers 
     1.0000   1.0000   1.0000   1.0000   1.0000   1.0000   1.0000   1.0000
     1.0000   1.0000   1.0000   1.0000   1.0000   1.0000   1.0000   1.0000
     1.0000   1.0000   1.0000   1.0000   1.0000   1.0000   1.0000   1.0000
     1.0000   1.0000   1.0000   1.0000   1.0000   1.0000   1.0000   1.0000
     1.0000   1.0000   1.0000   1.0000   1.0000   1.0000   1.0000   1.0000
     1.0000   1.0000   1.0000   1.0000   1.0000   1.0000   1.0000   1.0000
     1.0000   1.0000   1.0000   1.0000   0.0000   0.0000   0.0000   0.0000
     0.0000   0.0000   0.0000   0.0000   0.0000   0.0000

          k = 0.0000 0.1818 0.1818 ( 24954 PWs)   bands (ev):

   -79.7364 -79.7364 -79.7364 -79.7364 -45.9840 -45.9840 -45.9840 -45.9838
   -45.9838 -45.9838 -45.9838 -45.9838 -45.9838 -45.9837 -45.9837 -45.9837
    -3.8685  -1.8622  -1.8622  -1.2719   0.1063   0.2473   0.5065   0.5065
     0.8185   0.8185   1.7097   1.7097   1.7498   2.0198   2.0934   2.0970
     2.1770   2.1770   2.7429   2.8069   2.8069   2.9137   2.9152   3.5914
     4.3717   4.3717   4.4997   4.7981   4.8912   4.9640   5.4494   5.4494
     5.4550   5.4783   5.4869   5.4869   7.5572   7.5572   7.6545   9.5361
     9.5361   9.6970   9.8556  10.2896  10.5327  10.9036

     occupation numbers 
     1.0000   1.0000   1.0000   1.0000   1.0000   1.0000   1.0000   1.0000
     1.0000   1.0000   1.0000   1.0000   1.0000   1.0000   1.0000   1.0000
     1.0000   1.0000   1.0000   1.0000   1.0000   1.0000   1.0000   1.0000
     1.0000   1.0000   1.0000   1.0000   1.0000   1.0000   1.0000   1.0000
     1.0000   1.0000   1.0000   1.0000   1.0000   1.0000   1.0000   1.0000
     1.0000   1.0000   1.0000   1.0000   1.0000   1.0000   1.0000   1.0000
     1.0000   1.0000   1.0000   1.0000   0.0000   0.0000   0.0000   0.0000
     0.0000   0.0000   0.0000   0.0000   0.0000   0.0000

          k = 0.0000 0.1818 0.2727 ( 24934 PWs)   bands (ev):

   -79.7364 -79.7364 -79.7364 -79.7364 -45.9840 -45.9840 -45.9840 -45.9838
   -45.9838 -45.9838 -45.9838 -45.9838 -45.9838 -45.9838 -45.9837 -45.9837
    -3.7247  -2.2492  -1.7315  -1.1648  -0.2213   0.3010   0.3614   0.6715
     0.7696   1.1687   1.4614   1.6294   1.8051   1.8394   2.0414   2.1626
     2.2275   2.2731   2.5970   2.7137   2.8388   3.0274   3.0660   3.6309
     4.4215   4.6065   4.6689   4.7751   5.0089   5.0512   5.3953   5.4083
     5.4267   5.4603   5.4738   5.4852   7.6294   7.7930   7.8335   9.3556
     9.6057   9.7646   9.9680  10.2363  10.3895  10.5817

     occupation numbers 
     1.0000   1.0000   1.0000   1.0000   1.0000   1.0000   1.0000   1.0000
     1.0000   1.0000   1.0000   1.0000   1.0000   1.0000   1.0000   1.0000
     1.0000   1.0000   1.0000   1.0000   1.0000   1.0000   1.0000   1.0000
     1.0000   1.0000   1.0000   1.0000   1.0000   1.0000   1.0000   1.0000
     1.0000   1.0000   1.0000   1.0000   1.0000   1.0000   1.0000   1.0000
     1.0000   1.0000   1.0000   1.0000   1.0000   1.0000   1.0000   1.0000
     1.0000   1.0000   1.0000   1.0000   0.0000   0.0000   0.0000   0.0000
     0.0000   0.0000   0.0000   0.0000   0.0000   0.0000

          k = 0.0000 0.1818 0.3636 ( 24961 PWs)   bands (ev):

   -79.7364 -79.7364 -79.7364 -79.7364 -45.9839 -45.9839 -45.9839 -45.9839
   -45.9838 -45.9838 -45.9838 -45.9838 -45.9838 -45.9838 -45.9837 -45.9837
    -3.5254  -2.6264  -1.5541  -1.0689  -0.4804  -0.0121   0.5182   0.8535
     0.8826   1.1975   1.4398   1.4899   1.5808   1.9359   1.9891   2.2125
     2.2457   2.3710   2.4978   2.5094   2.9429   3.2100   3.2209   3.5524
     4.4859   4.7123   4.8403   4.8553   5.1457   5.1548   5.3108   5.3263
     5.3891   5.4173   5.4752   5.4829   7.7632   8.0796   8.0988   8.7929
     9.7054  10.0062  10.0972  10.1036  10.1893  10.3335

     occupation numbers 
     1.0000   1.0000   1.0000   1.0000   1.0000   1.0000   1.0000   1.0000
     1.0000   1.0000   1.0000   1.0000   1.0000   1.0000   1.0000   1.0000
     1.0000   1.0000   1.0000   1.0000   1.0000   1.0000   1.0000   1.0000
     1.0000   1.0000   1.0000   1.0000   1.0000   1.0000   1.0000   1.0000
     1.0000   1.0000   1.0000   1.0000   1.0000   1.0000   1.0000   1.0000
     1.0000   1.0000   1.0000   1.0000   1.0000   1.0000   1.0000   1.0000
     1.0000   1.0000   1.0000   1.0000   0.0000   0.0000   0.0000   0.0000
     0.0000   0.0000   0.0000   0.0000   0.0000   0.0000

          k = 0.0000 0.1818 0.4545 ( 24941 PWs)   bands (ev):

   -79.7364 -79.7364 -79.7364 -79.7364 -45.9839 -45.9839 -45.9839 -45.9839
   -45.9839 -45.9839 -45.9838 -45.9838 -45.9838 -45.9837 -45.9837 -45.9837
    -3.2730  -2.9713  -1.3414  -1.1335  -0.5030  -0.3000   0.7141   0.9435
     1.0457   1.0694   1.2368   1.3158   1.7283   1.8896   2.0987   2.2381
     2.2481   2.2887   2.4297   2.4629   3.1426   3.3108   3.3131   3.3734
     4.5601   4.6378   5.0356   5.0443   5.1908   5.2065   5.2529   5.2627
     5.3321   5.3528   5.4776   5.4803   7.9872   8.3275   8.3342   8.3659
     9.6120   9.6778   9.8366   9.9993  10.5366  10.8150

     occupation numbers 
     1.0000   1.0000   1.0000   1.0000   1.0000   1.0000   1.0000   1.0000
     1.0000   1.0000   1.0000   1.0000   1.0000   1.0000   1.0000   1.0000
     1.0000   1.0000   1.0000   1.0000   1.0000   1.0000   1.0000   1.0000
     1.0000   1.0000   1.0000   1.0000   1.0000   1.0000   1.0000   1.0000
     1.0000   1.0000   1.0000   1.0000   1.0000   1.0000   1.0000   1.0000
     1.0000   1.0000   1.0000   1.0000   1.0000   1.0000   1.0000   1.0000
     1.0000   1.0000   1.0000   1.0000   0.0000   0.0000   0.0000   0.0000
     0.0000   0.0000   0.0000   0.0000   0.0000   0.0000

          k = 0.0000 0.2727 0.2727 ( 24950 PWs)   bands (ev):

   -79.7364 -79.7364 -79.7364 -79.7364 -45.9840 -45.9840 -45.9839 -45.9839
   -45.9838 -45.9838 -45.9838 -45.9838 -45.9838 -45.9838 -45.9837 -45.9837
    -3.5816  -2.1152  -2.1152  -1.1151  -0.4965   0.4312   0.4312   0.4743
     1.1216   1.1216   1.5607   1.5607   1.6633   1.6980   1.8677   2.2023
     2.3007   2.3007   2.5050   2.5219   3.0986   3.0986   3.1841   3.7721
     4.6468   4.6468   4.7743   4.8791   5.0197   5.0866   5.3749   5.3749
     5.3928   5.4438   5.4562   5.4562   7.8514   7.8514   7.9407   9.3331
     9.7383   9.8377   9.8377  10.2786  10.3959  10.4668

     occupation numbers 
     1.0000   1.0000   1.0000   1.0000   1.0000   1.0000   1.0000   1.0000
     1.0000   1.0000   1.0000   1.0000   1.0000   1.0000   1.0000   1.0000
     1.0000   1.0000   1.0000   1.0000   1.0000   1.0000   1.0000   1.0000
     1.0000   1.0000   1.0000   1.0000   1.0000   1.0000   1.0000   1.0000
     1.0000   1.0000   1.0000   1.0000   1.0000   1.0000   1.0000   1.0000
     1.0000   1.0000   1.0000   1.0000   1.0000   1.0000   1.0000   1.0000
     1.0000   1.0000   1.0000   1.0000   0.0000   0.0000   0.0000   0.0000
     0.0000   0.0000   0.0000   0.0000   0.0000   0.0000

          k = 0.0000 0.2727 0.3636 ( 24976 PWs)   bands (ev):

   -79.7364 -79.7364 -79.7364 -79.7364 -45.9839 -45.9839 -45.9839 -45.9839
   -45.9838 -45.9838 -45.9838 -45.9838 -45.9838 -45.9837 -45.9837 -45.9837
    -3.3833  -2.4897  -1.9315  -1.2060  -0.5736   0.1205   0.6109   0.6294
     1.1951   1.3005   1.3986   1.4077   1.5824   1.6968   1.8107   2.2513
     2.2810   2.3061   2.3743   2.4828   3.2420   3.3025   3.3248   3.7782
     4.6986   4.8694   4.8703   4.9042   5.1270   5.1475   5.2942   5.3278
     5.3407   5.4097   5.4361   5.4510   7.9670   8.1097   8.1327   8.9220
     9.7197   9.8384   9.9406   9.9487  10.1735  10.3841

     occupation numbers 
     1.0000   1.0000   1.0000   1.0000   1.0000   1.0000   1.0000   1.0000
     1.0000   1.0000   1.0000   1.0000   1.0000   1.0000   1.0000   1.0000
     1.0000   1.0000   1.0000   1.0000   1.0000   1.0000   1.0000   1.0000
     1.0000   1.0000   1.0000   1.0000   1.0000   1.0000   1.0000   1.0000
     1.0000   1.0000   1.0000   1.0000   1.0000   1.0000   1.0000   1.0000
     1.0000   1.0000   1.0000   1.0000   1.0000   1.0000   1.0000   1.0000
     1.0000   1.0000   1.0000   1.0000   0.0000   0.0000   0.0000   0.0000
     0.0000   0.0000   0.0000   0.0000   0.0000   0.0000

          k = 0.0000 0.2727 0.4545 ( 24970 PWs)   bands (ev):

   -79.7364 -79.7364 -79.7364 -79.7364 -45.9839 -45.9839 -45.9839 -45.9839
   -45.9839 -45.9839 -45.9838 -45.9838 -45.9838 -45.9838 -45.9837 -45.9837
    -3.1323  -2.8323  -1.7039  -1.4464  -0.4247  -0.1765   0.8231   0.8366
     1.0497   1.1024   1.3151   1.4526   1.6062   1.7328   1.8662   2.0637
     2.2835   2.3003   2.4251   2.4557   3.4131   3.4169   3.4491   3.6539
     4.7574   4.8174   5.0464   5.0643   5.1824   5.2173   5.2215   5.2456
     5.2893   5.3407   5.4395   5.4451   8.1701   8.3092   8.3574   8.4877
     9.4932   9.5849   9.8606  10.0278  10.0724  10.2273

     occupation numbers 
     1.0000   1.0000   1.0000   1.0000   1.0000   1.0000   1.0000   1.0000
     1.0000   1.0000   1.0000   1.0000   1.0000   1.0000   1.0000   1.0000
     1.0000   1.0000   1.0000   1.0000   1.0000   1.0000   1.0000   1.0000
     1.0000   1.0000   1.0000   1.0000   1.0000   1.0000   1.0000   1.0000
     1.0000   1.0000   1.0000   1.0000   1.0000   1.0000   1.0000   1.0000
     1.0000   1.0000   1.0000   1.0000   1.0000   1.0000   1.0000   1.0000
     1.0000   1.0000   1.0000   1.0000   0.0000   0.0000   0.0000   0.0000
     0.0000   0.0000   0.0000   0.0000   0.0000   0.0000

          k = 0.0000 0.3636 0.3636 ( 24972 PWs)   bands (ev):

   -79.7364 -79.7364 -79.7364 -79.7364 -45.9839 -45.9839 -45.9839 -45.9839
   -45.9839 -45.9838 -45.9838 -45.9838 -45.9838 -45.9837 -45.9837 -45.9837
    -3.1865  -2.3012  -2.3012  -1.4858  -0.4663   0.3038   0.3038   0.7821
     1.1055   1.4345   1.4345   1.4417   1.4417   1.6132   1.7396   2.0483
     2.2997   2.3696   2.3696   2.4650   3.4614   3.4614   3.4624   3.8766
     4.9081   4.9081   4.9735   4.9811   5.1398   5.1549   5.2666   5.2666
     5.3082   5.3941   5.4002   5.4002   8.2014   8.2201   8.2201   9.0331
     9.2184   9.6659   9.6659   9.7075  10.2778  10.2778

     occupation numbers 
     1.0000   1.0000   1.0000   1.0000   1.0000   1.0000   1.0000   1.0000
     1.0000   1.0000   1.0000   1.0000   1.0000   1.0000   1.0000   1.0000
     1.0000   1.0000   1.0000   1.0000   1.0000   1.0000   1.0000   1.0000
     1.0000   1.0000   1.0000   1.0000   1.0000   1.0000   1.0000   1.0000
     1.0000   1.0000   1.0000   1.0000   1.0000   1.0000   1.0000   1.0000
     1.0000   1.0000   1.0000   1.0000   1.0000   1.0000   1.0000   1.0000
     1.0000   1.0000   1.0000   1.0000   0.0000   0.0000   0.0000   0.0000
     0.0000   0.0000   0.0000   0.0000   0.0000   0.0000

          k = 0.0000 0.3636 0.4545 ( 24966 PWs)   bands (ev):

   -79.7364 -79.7364 -79.7364 -79.7364 -45.9839 -45.9839 -45.9839 -45.9839
   -45.9839 -45.9838 -45.9838 -45.9838 -45.9837 -45.9837 -45.9837 -45.9837
    -2.9375  -2.6403  -2.0648  -1.7878  -0.2600   0.0035   0.5341   0.8054
     0.9726   1.1954   1.5009   1.5712   1.5884   1.6175   1.6800   1.8225
     2.3363   2.3580   2.4170   2.4459   3.5664   3.5732   3.6609   3.8257
     4.9493   4.9851   5.0652   5.0880   5.1697   5.1852   5.2255   5.2279
     5.2299   5.3265   5.3837   5.3904   8.3476   8.3961   8.4056   8.6917
     9.3085   9.3518   9.4362   9.4897  10.4032  10.5241

     occupation numbers 
     1.0000   1.0000   1.0000   1.0000   1.0000   1.0000   1.0000   1.0000
     1.0000   1.0000   1.0000   1.0000   1.0000   1.0000   1.0000   1.0000
     1.0000   1.0000   1.0000   1.0000   1.0000   1.0000   1.0000   1.0000
     1.0000   1.0000   1.0000   1.0000   1.0000   1.0000   1.0000   1.0000
     1.0000   1.0000   1.0000   1.0000   1.0000   1.0000   1.0000   1.0000
     1.0000   1.0000   1.0000   1.0000   1.0000   1.0000   1.0000   1.0000
     1.0000   1.0000   1.0000   1.0000   0.0000   0.0000   0.0000   0.0000
     0.0000   0.0000   0.0000   0.0000   0.0000   0.0000

          k = 0.0000 0.4545 0.4545 ( 24976 PWs)   bands (ev):

   -79.7364 -79.7364 -79.7364 -79.7364 -45.9839 -45.9839 -45.9839 -45.9839
   -45.9838 -45.9838 -45.9838 -45.9838 -45.9837 -45.9837 -45.9837 -45.9837
    -2.6914  -2.3982  -2.3982  -2.1111  -0.0364   0.2331   0.2331   0.5048
     1.1591   1.3770   1.3770   1.5890   1.6025   1.6025   1.6083   1.6509
     2.3775   2.4027   2.4027   2.4302   3.7031   3.7482   3.7482   3.8545
     5.0936   5.1005   5.1080   5.1080   5.1583   5.1583   5.1607   5.2060
     5.2432   5.3154   5.3154   5.3278   8.4657   8.5516   8.5516   8.7924
     9.0050   9.1768   9.1768   9.2461  10.7787  10.8043

     occupation numbers 
     1.0000   1.0000   1.0000   1.0000   1.0000   1.0000   1.0000   1.0000
     1.0000   1.0000   1.0000   1.0000   1.0000   1.0000   1.0000   1.0000
     1.0000   1.0000   1.0000   1.0000   1.0000   1.0000   1.0000   1.0000
     1.0000   1.0000   1.0000   1.0000   1.0000   1.0000   1.0000   1.0000
     1.0000   1.0000   1.0000   1.0000   1.0000   1.0000   1.0000   1.0000
     1.0000   1.0000   1.0000   1.0000   1.0000   1.0000   1.0000   1.0000
     1.0000   1.0000   1.0000   1.0000   0.0000   0.0000   0.0000   0.0000
     0.0000   0.0000   0.0000   0.0000   0.0000   0.0000

          k = 0.0909 0.0909 0.0909 ( 25002 PWs)   bands (ev):

   -79.7364 -79.7364 -79.7364 -79.7364 -45.9840 -45.9840 -45.9840 -45.9838
   -45.9838 -45.9838 -45.9838 -45.9838 -45.9838 -45.9837 -45.9837 -45.9837
    -4.0133  -1.5743  -1.5743  -1.5743   0.2507   0.2507   0.2507   0.7596
     0.7596   0.7596   1.8642   1.8642   1.8642   2.0035   2.0035   2.0035
     2.1656   2.1656   2.6914   2.6914   2.6914   2.9471   3.3584   3.3584
     4.2164   4.2164   4.2164   4.7921   4.7921   4.8161   5.4890   5.4890
     5.4890   5.4944   5.4944   5.4944   7.4219   7.4219   7.4219   9.4101
     9.4101   9.4101  10.5098  10.5098  10.6588  10.8771

     occupation numbers 
     1.0000   1.0000   1.0000   1.0000   1.0000   1.0000   1.0000   1.0000
     1.0000   1.0000   1.0000   1.0000   1.0000   1.0000   1.0000   1.0000
     1.0000   1.0000   1.0000   1.0000   1.0000   1.0000   1.0000   1.0000
     1.0000   1.0000   1.0000   1.0000   1.0000   1.0000   1.0000   1.0000
     1.0000   1.0000   1.0000   1.0000   1.0000   1.0000   1.0000   1.0000
     1.0000   1.0000   1.0000   1.0000   1.0000   1.0000   1.0000   1.0000
     1.0000   1.0000   1.0000   1.0000   0.0000   0.0000   0.0000   0.0000
     0.0000   0.0000   0.0000   0.0000   0.0000   0.0000

          k = 0.0909 0.0909 0.1818 ( 24983 PWs)   bands (ev):

   -79.7364 -79.7364 -79.7364 -79.7364 -45.9840 -45.9840 -45.9840 -45.9838
   -45.9838 -45.9838 -45.9838 -45.9838 -45.9838 -45.9837 -45.9837 -45.9837
    -3.9263  -1.9154  -1.4972  -1.4972   0.3041   0.3041   0.4662   0.4662
     0.5135   0.9422   1.7242   1.7242   1.9101   2.0436   2.0909   2.1064
     2.1064   2.1794   2.6757   2.7121   2.8237   2.8237   3.2192   3.4477
     4.2508   4.3866   4.3866   4.7600   4.8975   4.9053   5.4606   5.4606
     5.4768   5.4806   5.4927   5.4927   7.4586   7.5581   7.5581   9.4497
     9.5487   9.5487   9.9601  10.5183  10.5523  10.9275

     occupation numbers 
     1.0000   1.0000   1.0000   1.0000   1.0000   1.0000   1.0000   1.0000
     1.0000   1.0000   1.0000   1.0000   1.0000   1.0000   1.0000   1.0000
     1.0000   1.0000   1.0000   1.0000   1.0000   1.0000   1.0000   1.0000
     1.0000   1.0000   1.0000   1.0000   1.0000   1.0000   1.0000   1.0000
     1.0000   1.0000   1.0000   1.0000   1.0000   1.0000   1.0000   1.0000
     1.0000   1.0000   1.0000   1.0000   1.0000   1.0000   1.0000   1.0000
     1.0000   1.0000   1.0000   1.0000   0.0000   0.0000   0.0000   0.0000
     0.0000   0.0000   0.0000   0.0000   0.0000   0.0000

          k = 0.0909 0.0909 0.2727 ( 24941 PWs)   bands (ev):

   -79.7364 -79.7364 -79.7364 -79.7364 -45.9840 -45.9840 -45.9840 -45.9838
   -45.9838 -45.9838 -45.9838 -45.9838 -45.9838 -45.9838 -45.9837 -45.9837
    -3.7822  -2.3034  -1.3724  -1.3724   0.0940   0.0940   0.4445   0.4445
     0.7272   1.2591   1.4988   1.4988   1.8521   1.9818   2.1794   2.1794
     2.1975   2.2510   2.4897   2.6557   3.0121   3.0121   3.0434   3.4327
     4.3055   4.6065   4.6065   4.7029   5.0178   5.0415   5.4060   5.4060
     5.4537   5.4546   5.4927   5.4927   7.5358   7.7847   7.7847   9.3229
     9.5173   9.7870   9.7870  10.3114  10.6887  10.6910

     occupation numbers 
     1.0000   1.0000   1.0000   1.0000   1.0000   1.0000   1.0000   1.0000
     1.0000   1.0000   1.0000   1.0000   1.0000   1.0000   1.0000   1.0000
     1.0000   1.0000   1.0000   1.0000   1.0000   1.0000   1.0000   1.0000
     1.0000   1.0000   1.0000   1.0000   1.0000   1.0000   1.0000   1.0000
     1.0000   1.0000   1.0000   1.0000   1.0000   1.0000   1.0000   1.0000
     1.0000   1.0000   1.0000   1.0000   1.0000   1.0000   1.0000   1.0000
     1.0000   1.0000   1.0000   1.0000   0.0000   0.0000   0.0000   0.0000
     0.0000   0.0000   0.0000   0.0000   0.0000   0.0000
[...]
     atom    8 type  3   force =    -0.00000000   -0.00000000    0.00000000
     atom    9 type  1   force =    -0.00000000   -0.00000000   -0.00000000
     atom   10 type  1   force =    -0.00000000    0.00000000    0.00000000
     atom   11 type  1   force =     0.00000000   -0.00000000    0.00000000
     atom   12 type  1   force =     0.00000000    0.00000000   -0.00000000
     atom   13 type  2   force =    -0.00000000   -3.00592336   -0.00000000
     atom   14 type  2   force =    -0.00000000   -0.00000000    3.00592336
     atom   15 type  2   force =     0.00000000   -0.00000000   -3.00592336
     atom   16 type  2   force =     0.00000000    3.00592336   -0.00000000
     atom   17 type  2   force =    -3.00592336   -0.00000000   -0.00000000
     atom   18 type  2   force =     3.00592336    0.00000000   -0.00000000
     atom   19 type  2   force =    -0.00000000   -3.00592336    0.00000000
     atom   20 type  2   force =    -0.00000000   -0.00000000    3.00592336
     atom   21 type  2   force =     0.00000000    0.00000000   -3.00592336
     atom   22 type  2   force =     0.00000000    3.00592336   -0.00000000
     atom   23 type  2   force =    -3.00592336   -0.00000000    0.00000000
     atom   24 type  2   force =     3.00592336    0.00000000   -0.00000000
     atom   25 type  2   force =    -0.00000000   -3.00592336    0.00000000
     atom   26 type  2   force =    -0.00000000   -0.00000000    3.00592336
     atom   27 type  2   force =    -0.00000000   -0.00000000   -3.00592336
     atom   28 type  2   force =     0.00000000    3.00592336   -0.00000000
     atom   29 type  2   force =    -3.00592336   -0.00000000    0.00000000
     atom   30 type  2   force =     3.00592336    0.00000000   -0.00000000
     atom   31 type  2   force =    -0.00000000   -3.00592336   -0.00000000
     atom   32 type  2   force =    -0.00000000   -0.00000000    3.00592336
     atom   33 type  2   force =    -0.00000000    0.00000000   -3.00592336
     atom   34 type  2   force =     0.00000000    3.00592336   -0.00000000
     atom   35 type  2   force =    -3.00592336   -0.00000000   -0.00000000
     atom   36 type  2   force =     3.00592336    0.00000000   -0.00000000
     The local contribution  to forces
     atom    1 type  3   force =     0.00000001    0.00000001   -0.00000001
     atom    2 type  3   force =     0.00000001    0.00000001    0.00000001
     atom    3 type  3   force =     0.00000001   -0.00000001    0.00000001
     atom    4 type  3   force =     0.00000001   -0.00000001   -0.00000001
     atom    5 type  3   force =    -0.00000001    0.00000001    0.00000001
     atom    6 type  3   force =    -0.00000001    0.00000001   -0.00000001
     atom    7 type  3   force =    -0.00000001   -0.00000001   -0.00000001
     atom    8 type  3   force =    -0.00000001   -0.00000001    0.00000001
     atom    9 type  1   force =     0.00000000    0.00000000   -0.00000000
     atom   10 type  1   force =     0.00000000    0.00000000    0.00000000
     atom   11 type  1   force =     0.00000000    0.00000000    0.00000000
     atom   12 type  1   force =     0.00000000    0.00000000   -0.00000000
     atom   13 type  2   force =     0.00000000    2.98007537   -0.00000000
     atom   14 type  2   force =     0.00000000    0.00000000   -2.98007681
     atom   15 type  2   force =    -0.00000000   -0.00000000    2.98007681
     atom   16 type  2   force =     0.00000000   -2.98007681    0.00000000
     atom   17 type  2   force =     2.98007537    0.00000000   -0.00000000
     atom   18 type  2   force =    -2.98007537   -0.00000000   -0.00000000
     atom   19 type  2   force =    -0.00000000    2.98007681    0.00000000
     atom   20 type  2   force =     0.00000000    0.00000000   -2.98007687
     atom   21 type  2   force =    -0.00000000   -0.00000000    2.98007687
     atom   22 type  2   force =    -0.00000000   -2.98007687    0.00000000
     atom   23 type  2   force =     2.98007687    0.00000000   -0.00000000
     atom   24 type  2   force =    -2.98007687   -0.00000000    0.00000000
     atom   25 type  2   force =     0.00000000    2.98007687   -0.00000000
     atom   26 type  2   force =     0.00000000    0.00000000   -2.98007537
     atom   27 type  2   force =     0.00000000   -0.00000000    2.98007537
     atom   28 type  2   force =     0.00000000   -2.98007681    0.00000000
     atom   29 type  2   force =     2.98007681    0.00000000    0.00000000
     atom   30 type  2   force =    -2.98007681   -0.00000000    0.00000000
     atom   31 type  2   force =    -0.00000000    2.98007681   -0.00000000
     atom   32 type  2   force =     0.00000000    0.00000000   -2.98007681
     atom   33 type  2   force =    -0.00000000   -0.00000000    2.98007681
     atom   34 type  2   force =    -0.00000000   -2.98007537    0.00000000
     atom   35 type  2   force =     2.98007681   -0.00000000   -0.00000000
     atom   36 type  2   force =    -2.98007681    0.00000000    0.00000000
     The core correction contribution to forces
     atom    1 type  3   force =     0.00000002    0.00000002   -0.00000002
     atom    2 type  3   force =     0.00000002    0.00000002    0.00000002
     atom    3 type  3   force =     0.00000002   -0.00000002    0.00000002
     atom    4 type  3   force =     0.00000002   -0.00000002   -0.00000002
     atom    5 type  3   force =    -0.00000002    0.00000002    0.00000002
     atom    6 type  3   force =    -0.00000002    0.00000002   -0.00000002
     atom    7 type  3   force =    -0.00000002   -0.00000002   -0.00000002
     atom    8 type  3   force =    -0.00000002   -0.00000002    0.00000002
     atom    9 type  1   force =     0.00000000   -0.00000000    0.00000000
     atom   10 type  1   force =     0.00000000   -0.00000000   -0.00000000
     atom   11 type  1   force =    -0.00000000   -0.00000000   -0.00000000
     atom   12 type  1   force =    -0.00000000   -0.00000000    0.00000000
     atom   13 type  2   force =     0.00000000    0.00000000    0.00000000
     atom   14 type  2   force =     0.00000000    0.00000000    0.00000000
     atom   15 type  2   force =     0.00000000    0.00000000    0.00000000
     atom   16 type  2   force =     0.00000000    0.00000000    0.00000000
     atom   17 type  2   force =     0.00000000    0.00000000    0.00000000
     atom   18 type  2   force =     0.00000000    0.00000000    0.00000000
     atom   19 type  2   force =     0.00000000    0.00000000    0.00000000
     atom   20 type  2   force =     0.00000000    0.00000000    0.00000000
     atom   21 type  2   force =     0.00000000    0.00000000    0.00000000
     atom   22 type  2   force =     0.00000000    0.00000000    0.00000000
     atom   23 type  2   force =     0.00000000    0.00000000    0.00000000
     atom   24 type  2   force =     0.00000000    0.00000000    0.00000000
     atom   25 type  2   force =     0.00000000    0.00000000    0.00000000
     atom   26 type  2   force =     0.00000000    0.00000000    0.00000000
     atom   27 type  2   force =     0.00000000    0.00000000    0.00000000
     atom   28 type  2   force =     0.00000000    0.00000000    0.00000000
     atom   29 type  2   force =     0.00000000    0.00000000    0.00000000
     atom   30 type  2   force =     0.00000000    0.00000000    0.00000000
     atom   31 type  2   force =     0.00000000    0.00000000    0.00000000
     atom   32 type  2   force =     0.00000000    0.00000000    0.00000000
     atom   33 type  2   force =     0.00000000    0.00000000    0.00000000
     atom   34 type  2   force =     0.00000000    0.00000000    0.00000000
     atom   35 type  2   force =     0.00000000    0.00000000    0.00000000
     atom   36 type  2   force =     0.00000000    0.00000000    0.00000000
     The Hubbard contrib.    to forces
     atom    1 type  3   force =     0.00000000    0.00000000    0.00000000
     atom    2 type  3   force =     0.00000000    0.00000000    0.00000000
     atom    3 type  3   force =     0.00000000    0.00000000    0.00000000
     atom    4 type  3   force =     0.00000000    0.00000000    0.00000000
     atom    5 type  3   force =     0.00000000    0.00000000    0.00000000
     atom    6 type  3   force =     0.00000000    0.00000000    0.00000000
     atom    7 type  3   force =     0.00000000    0.00000000    0.00000000
     atom    8 type  3   force =     0.00000000    0.00000000    0.00000000
     atom    9 type  1   force =     0.00000000    0.00000000    0.00000000
     atom   10 type  1   force =     0.00000000    0.00000000    0.00000000
     atom   11 type  1   force =     0.00000000    0.00000000    0.00000000
     atom   12 type  1   force =     0.00000000    0.00000000    0.00000000
     atom   13 type  2   force =     0.00000000    0.00000000    0.00000000
     atom   14 type  2   force =     0.00000000    0.00000000    0.00000000
     atom   15 type  2   force =     0.00000000    0.00000000    0.00000000
     atom   16 type  2   force =     0.00000000    0.00000000    0.00000000
     atom   17 type  2   force =     0.00000000    0.00000000    0.00000000
     atom   18 type  2   force =     0.00000000    0.00000000    0.00000000
     atom   19 type  2   force =     0.00000000    0.00000000    0.00000000
     atom   20 type  2   force =     0.00000000    0.00000000    0.00000000
     atom   21 type  2   force =     0.00000000    0.00000000    0.00000000
     atom   22 type  2   force =     0.00000000    0.00000000    0.00000000
     atom   23 type  2   force =     0.00000000    0.00000000    0.00000000
     atom   24 type  2   force =     0.00000000    0.00000000    0.00000000
     atom   25 type  2   force =     0.00000000    0.00000000    0.00000000
     atom   26 type  2   force =     0.00000000    0.00000000    0.00000000
     atom   27 type  2   force =     0.00000000    0.00000000    0.00000000
     atom   28 type  2   force =     0.00000000    0.00000000    0.00000000
     atom   29 type  2   force =     0.00000000    0.00000000    0.00000000
     atom   30 type  2   force =     0.00000000    0.00000000    0.00000000
     atom   31 type  2   force =     0.00000000    0.00000000    0.00000000
     atom   32 type  2   force =     0.00000000    0.00000000    0.00000000
     atom   33 type  2   force =     0.00000000    0.00000000    0.00000000
     atom   34 type  2   force =     0.00000000    0.00000000    0.00000000
     atom   35 type  2   force =     0.00000000    0.00000000    0.00000000
     atom   36 type  2   force =     0.00000000    0.00000000    0.00000000
     The SCF correction term to forces
     atom    1 type  3   force =     0.00000021    0.00000021   -0.00000021
     atom    2 type  3   force =     0.00000021    0.00000021    0.00000021
     atom    3 type  3   force =     0.00000021   -0.00000021    0.00000021
     atom    4 type  3   force =     0.00000021   -0.00000021   -0.00000021
     atom    5 type  3   force =    -0.00000021    0.00000021    0.00000021
     atom    6 type  3   force =    -0.00000021    0.00000021   -0.00000021
     atom    7 type  3   force =    -0.00000021   -0.00000021   -0.00000021
     atom    8 type  3   force =    -0.00000021   -0.00000021    0.00000021
     atom    9 type  1   force =     0.00000000   -0.00000000    0.00000000
     atom   10 type  1   force =    -0.00000000   -0.00000000   -0.00000000
     atom   11 type  1   force =    -0.00000000    0.00000000   -0.00000000
     atom   12 type  1   force =    -0.00000000    0.00000000    0.00000000
     atom   13 type  2   force =    -0.00000000    0.00000094    0.00000000
     atom   14 type  2   force =     0.00000000   -0.00000000    0.00000021
     atom   15 type  2   force =     0.00000000   -0.00000000   -0.00000021
     atom   16 type  2   force =     0.00000000    0.00000021   -0.00000000
     atom   17 type  2   force =     0.00000094   -0.00000000   -0.00000000
     atom   18 type  2   force =    -0.00000094    0.00000000   -0.00000000
     atom   19 type  2   force =    -0.00000000   -0.00000021    0.00000000
     atom   20 type  2   force =     0.00000000    0.00000000    0.00000013
     atom   21 type  2   force =     0.00000000   -0.00000000   -0.00000013
     atom   22 type  2   force =     0.00000000    0.00000013    0.00000000
     atom   23 type  2   force =    -0.00000013   -0.00000000    0.00000000
     atom   24 type  2   force =     0.00000013    0.00000000    0.00000000
     atom   25 type  2   force =    -0.00000000   -0.00000013   -0.00000000
     atom   26 type  2   force =    -0.00000000    0.00000000   -0.00000094
     atom   27 type  2   force =    -0.00000000   -0.00000000    0.00000094
     atom   28 type  2   force =     0.00000000    0.00000021    0.00000000
     atom   29 type  2   force =    -0.00000021   -0.00000000   -0.00000000
     atom   30 type  2   force =     0.00000021    0.00000000    0.00000000
     atom   31 type  2   force =     0.00000000   -0.00000021    0.00000000
     atom   32 type  2   force =    -0.00000000    0.00000000    0.00000021
     atom   33 type  2   force =     0.00000000    0.00000000   -0.00000021
     atom   34 type  2   force =     0.00000000   -0.00000094    0.00000000
     atom   35 type  2   force =    -0.00000021   -0.00000000    0.00000000
     atom   36 type  2   force =     0.00000021    0.00000000    0.00000000

     Total force =     0.021610     Total SCF correction =     0.000003


     Computing stress (Cartesian axis) and pressure

          total   stress  (Ry/bohr**3)                   (kbar)     P=        0.05
   0.00000032   0.00000000   0.00000000            0.05        0.00        0.00
   0.00000000   0.00000032   0.00000000            0.00        0.05        0.00
   0.00000000   0.00000000   0.00000032            0.00        0.00        0.05

     kinetic stress (kbar)  17234.55      0.00      0.00
                                0.00  17234.55      0.00
                                0.00      0.00  17234.55

     local   stress (kbar)  -1925.35      0.00      0.00
                                0.00  -1925.35     -0.00
                                0.00     -0.00  -1925.35

     nonloc. stress (kbar) -11918.71      0.00      0.00
                                0.00 -11918.71      0.00
                                0.00      0.00 -11918.71

     hartree stress (kbar)  13890.57      0.00      0.00
                                0.00  13890.57      0.00
                                0.00      0.00  13890.57

     exc-cor stress (kbar)   -633.28     -0.00     -0.00
                               -0.00   -633.28      0.00
                               -0.00      0.00   -633.28

     corecor stress (kbar)  -3458.70     -0.00     -0.00
                               -0.00  -3458.70     -0.00
                               -0.00     -0.00  -3458.70

     ewald   stress (kbar) -13189.02      0.00      0.00
                                0.00 -13189.02      0.00
                                0.00      0.00 -13189.02

     hubbard stress (kbar)      0.00      0.00      0.00
                                0.00      0.00      0.00
                                0.00      0.00      0.00

     DFT-D   stress (kbar)      0.00      0.00      0.00
                                0.00      0.00      0.00
                                0.00      0.00      0.00

     XDM     stress (kbar)      0.00      0.00      0.00
                                0.00      0.00      0.00
                                0.00      0.00      0.00

     dft-nl  stress (kbar)      0.00      0.00      0.00
                                0.00      0.00      0.00
                                0.00      0.00      0.00

     TS-vdW  stress (kbar)      0.00      0.00      0.00
                                0.00      0.00      0.00
                                0.00      0.00      0.00

     MDB     stress (kbar)      0.00      0.00      0.00
                                0.00      0.00      0.00
                                0.00      0.00      0.00

     3D-RISM stress (kbar)      0.00      0.00      0.00
                                0.00      0.00      0.00
                                0.00      0.00      0.00


     Writing all to output data dir ./out/fe-kp-11.save/

     init_run     :      3.52s CPU      4.10s WALL (       1 calls)
     electrons    :     87.86s CPU    101.90s WALL (       1 calls)
     forces       :      1.15s CPU      1.29s WALL (       1 calls)
     stress       :      9.33s CPU      9.46s WALL (       1 calls)

     Called by init_run:
     wfcinit      :      2.56s CPU      2.88s WALL (       1 calls)
     wfcinit:atom :      0.04s CPU      0.04s WALL (      28 calls)
     wfcinit:wfcr :      2.35s CPU      2.67s WALL (      28 calls)
     potinit      :      0.35s CPU      0.42s WALL (       1 calls)
     hinit0       :      0.23s CPU      0.26s WALL (       1 calls)

     Called by electrons:
     c_bands      :     73.96s CPU     84.76s WALL (      15 calls)
     sum_band     :     11.17s CPU     12.99s WALL (      15 calls)
     v_of_rho     :      0.71s CPU      0.88s WALL (      16 calls)
     v_h          :      0.07s CPU      0.09s WALL (      16 calls)
     v_xc         :      0.72s CPU      0.89s WALL (      18 calls)
     newd         :      1.39s CPU      1.87s WALL (      16 calls)
     PAW_pot      :      0.56s CPU      1.15s WALL (      16 calls)
     mix_rho      :      0.11s CPU      0.13s WALL (      15 calls)

     Called by c_bands:
     init_us_2    :      1.35s CPU      1.44s WALL (     924 calls)
     init_us_2:cp :      1.34s CPU      1.44s WALL (     924 calls)
     cegterg      :     70.78s CPU     78.88s WALL (     420 calls)

     Called by sum_band:
     sum_band:wei :      0.01s CPU      0.01s WALL (      15 calls)
     sum_band:loo :      9.43s CPU     10.59s WALL (      15 calls)
     sum_band:buf :      0.22s CPU      0.23s WALL (     420 calls)
     sum_band:ini :      0.56s CPU      0.58s WALL (     420 calls)
     sum_band:cal :      1.60s CPU      1.82s WALL (     420 calls)
     sum_band:bec :      0.05s CPU      0.05s WALL (     420 calls)
     addusdens    :      1.60s CPU      2.20s WALL (      15 calls)
                                        0.00s GPU  (      15 calls)
     addusd:skk   :      0.08s CPU      0.08s WALL (      45 calls)
                                        0.00s GPU  (      45 calls)

     Called by *egterg:
     cdiaghg      :      9.37s CPU      9.79s WALL (    2009 calls)
     cegterg:over :      3.44s CPU      3.77s WALL (    1589 calls)
     cegterg:upda :      2.15s CPU      2.19s WALL (    1589 calls)
     cegterg:last :      4.54s CPU      4.57s WALL (     965 calls)
     h_psi        :     47.22s CPU     54.56s WALL (    2037 calls)
     s_psi        :      3.75s CPU      3.82s WALL (    2037 calls)
     g_psi        :      0.13s CPU      0.13s WALL (    1589 calls)

     Called by h_psi:
     h_psi:calbec :      6.14s CPU      6.97s WALL (    2037 calls)
     vloc_psi     :     36.39s CPU     42.74s WALL (    2037 calls)
     add_vuspsi   :      4.23s CPU      4.38s WALL (    2037 calls)

     General routines
     calbec       :      8.23s CPU      9.35s WALL (    2597 calls)
     fft          :      0.57s CPU      0.74s WALL (     231 calls)
     ffts         :      0.16s CPU      0.17s WALL (      31 calls)
     fftw         :     35.48s CPU     41.54s WALL (  175060 calls)
     interpolate  :      0.19s CPU      0.21s WALL (      16 calls)

     Parallel routines

     PAW routines
     PAW_pot      :      0.56s CPU      1.15s WALL (      16 calls)
     PAW_symme    :      0.01s CPU      0.02s WALL (      31 calls)

     PWSCF        :   1m42.69s CPU   1m59.44s WALL


   This run was terminated on:  22:28: 4  13Jun2025            

=------------------------------------------------------------------------------=
   JOB DONE.
=------------------------------------------------------------------------------=
