
     Program PWSCF v.7.2 starts on 13Jun2025 at 22:31:35 

     This program is part of the open-source Quantum ESPRESSO suite
     for quantum simulation of materials; please cite
         "P. Giannozzi et al., J. Phys.:Condens. Matter 21 395502 (2009);
         "P. Giannozzi et al., J. Phys.:Condens. Matter 29 465901 (2017);
         "P. Giannozzi et al., J. Chem. Phys. 152 154105 (2020);
          URL http://www.quantum-espresso.org", 
     in publications or presentations arising from this work. More details at
     http://www.quantum-espresso.org/quote

     Parallel version (MPI & OpenMP), running on      64 processor cores
     Number of MPI processes:                64
     Threads/MPI process:                     1

     MPI processes distributed on     1 nodes
     235868 MiB available memory on the printing compute node when the environment starts

     Reading input from fe_kp_5.in

     Current dimensions of program PWSCF are:
     Max number of different atomic species (ntypx) = 10
     Max number of k-points (npk) =  40000
     Max angular momentum in pseudopotentials (lmaxx) =  4
     file Fe.pbesol-spn-kjpaw_psl.0.2.1.UPF: wavefunction(s)  3D renormalized
     file Mg.pbesol-n-kjpaw_psl.0.3.0.UPF: wavefunction(s)  3S renormalized
     Found identity + (  0.0000  0.5000 -0.5000) symmetry
     This is a supercell, fractional translations are disabled
     Message from routine setup:
     using ibrav=0 with symmetry is DISCOURAGED, use correct ibrav instead

     K-points division:     npool     =       2
     R & G space division:  proc/nbgrp/npool/nimage =      32
     Subspace diagonalization in iterative solution of the eigenvalue problem:
     a serial algorithm will be used


     Parallelization info
     --------------------
     sticks:   dense  smooth     PW     G-vecs:    dense   smooth      PW
     Min         387     129     34                32439     6247     874
     Max         388     130     35                32443     6250     877
     Sum       12393    4149   1109              1038085   199949   28017

     Using Slab Decomposition



     bravais-lattice index     =            0
     lattice parameter (alat)  =      12.0093  a.u.
     unit-cell volume          =    1732.0312 (a.u.)^3
     number of atoms/cell      =           36
     number of atomic types    =            3
     number of electrons       =       104.00
     number of Kohn-Sham states=           62
     kinetic-energy cutoff     =      90.0000  Ry
     charge density cutoff     =    1080.0000  Ry
     scf convergence threshold =      7.2E-09
     mixing beta               =       0.4000
     number of iterations used =            8  plain     mixing
     Exchange-correlation= SLA  PW   PSX  PSC
                           (   1   4  10   8   0   0   0)

     celldm(1)=  12.009324  celldm(2)=   0.000000  celldm(3)=   0.000000
     celldm(4)=   0.000000  celldm(5)=   0.000000  celldm(6)=   0.000000

     crystal axes: (cart. coord. in units of alat)
               a(1) = (   1.000000   0.000000   0.000000 )  
               a(2) = (   0.000000   1.000000   0.000000 )  
               a(3) = (   0.000000   0.000000   1.000000 )  

     reciprocal axes: (cart. coord. in units 2 pi/alat)
               b(1) = (  1.000000  0.000000  0.000000 )  
               b(2) = (  0.000000  1.000000  0.000000 )  
               b(3) = (  0.000000  0.000000  1.000000 )  


     PseudoPot. # 1 for Fe read from file:
     ./pseudo/Fe.pbesol-spn-kjpaw_psl.0.2.1.UPF
     MD5 check sum: 4d7ec5aa2156491519a4322664fbbf52
     Pseudo is Projector augmented-wave + core cor, Zval = 16.0
     Generated using "atomic" code by A. Dal Corso  v.6.0 svn rev. 13079
     Shape of augmentation charge: PSQ
     Using radial grid of 1191 points,  6 beta functions with: 
                l(1) =   0
                l(2) =   0
                l(3) =   1
                l(4) =   1
                l(5) =   2
                l(6) =   2
     Q(r) pseudized with 0 coefficients 


     PseudoPot. # 2 for H  read from file:
     ./pseudo/H.pbesol-rrkjus_psl.1.0.0.UPF
     MD5 check sum: 0324ed591cc0147dc3d88cad0d33f665
     Pseudo is Ultrasoft, Zval =  1.0
     Generated using "atomic" code by A. Dal Corso  v.6.0 svn rev. 13079
     Using radial grid of  929 points,  2 beta functions with: 
                l(1) =   0
                l(2) =   0
     Q(r) pseudized with 0 coefficients 


     PseudoPot. # 3 for Mg read from file:
     ./pseudo/Mg.pbesol-n-kjpaw_psl.0.3.0.UPF
     MD5 check sum: a6c8d2ff726a5f7005dea00130d82930
     Pseudo is Projector augmented-wave + core cor, Zval =  2.0
     Generated using "atomic" code by A. Dal Corso  v.6.1 svn rev. 13369
     Shape of augmentation charge: PSQ
     Using radial grid of 1129 points,  4 beta functions with: 
                l(1) =   0
                l(2) =   0
                l(3) =   1
                l(4) =   1
     Q(r) pseudized with 0 coefficients 


     atomic species   valence    mass     pseudopotential
        Fe            16.00    55.84500     Fe( 1.00)
        H              1.00     1.00794     H ( 1.00)
        Mg             2.00    24.30500     Mg( 1.00)

     48 Sym. Ops., with inversion, found


                                    s                        frac. trans.

      isym =  1     identity                                     

 cryst.   s( 1) = (     1          0          0      )
                  (     0          1          0      )
                  (     0          0          1      )

 cart.    s( 1) = (  1.0000000  0.0000000  0.0000000 )
                  (  0.0000000  1.0000000  0.0000000 )
                  (  0.0000000  0.0000000  1.0000000 )


      isym =  2     180 deg rotation - cart. axis [0,0,1]        

 cryst.   s( 2) = (    -1          0          0      )
                  (     0         -1          0      )
                  (     0          0          1      )

 cart.    s( 2) = ( -1.0000000  0.0000000  0.0000000 )
                  (  0.0000000 -1.0000000  0.0000000 )
                  (  0.0000000  0.0000000  1.0000000 )


      isym =  3     180 deg rotation - cart. axis [0,1,0]        

 cryst.   s( 3) = (    -1          0          0      )
                  (     0          1          0      )
                  (     0          0         -1      )

 cart.    s( 3) = ( -1.0000000  0.0000000  0.0000000 )
                  (  0.0000000  1.0000000  0.0000000 )
                  (  0.0000000  0.0000000 -1.0000000 )


      isym =  4     180 deg rotation - cart. axis [1,0,0]        

 cryst.   s( 4) = (     1          0          0      )
                  (     0         -1          0      )
                  (     0          0         -1      )

 cart.    s( 4) = (  1.0000000  0.0000000  0.0000000 )
                  (  0.0000000 -1.0000000  0.0000000 )
                  (  0.0000000  0.0000000 -1.0000000 )


      isym =  5     180 deg rotation - cart. axis [1,1,0]        

 cryst.   s( 5) = (     0          1          0      )
                  (     1          0          0      )
                  (     0          0         -1      )

 cart.    s( 5) = (  0.0000000  1.0000000  0.0000000 )
                  (  1.0000000  0.0000000  0.0000000 )
                  (  0.0000000  0.0000000 -1.0000000 )


      isym =  6     180 deg rotation - cart. axis [1,-1,0]       

 cryst.   s( 6) = (     0         -1          0      )
                  (    -1          0          0      )
                  (     0          0         -1      )

 cart.    s( 6) = (  0.0000000 -1.0000000  0.0000000 )
                  ( -1.0000000  0.0000000  0.0000000 )
                  (  0.0000000  0.0000000 -1.0000000 )


      isym =  7      90 deg rotation - cart. axis [0,0,-1]       

 cryst.   s( 7) = (     0         -1          0      )
                  (     1          0          0      )
                  (     0          0          1      )

 cart.    s( 7) = (  0.0000000  1.0000000  0.0000000 )
                  ( -1.0000000  0.0000000  0.0000000 )
                  (  0.0000000  0.0000000  1.0000000 )


      isym =  8      90 deg rotation - cart. axis [0,0,1]        

 cryst.   s( 8) = (     0          1          0      )
                  (    -1          0          0      )
                  (     0          0          1      )

 cart.    s( 8) = (  0.0000000 -1.0000000  0.0000000 )
                  (  1.0000000  0.0000000  0.0000000 )
                  (  0.0000000  0.0000000  1.0000000 )


      isym =  9     180 deg rotation - cart. axis [1,0,1]        

 cryst.   s( 9) = (     0          0          1      )
                  (     0         -1          0      )
                  (     1          0          0      )

 cart.    s( 9) = (  0.0000000  0.0000000  1.0000000 )
                  (  0.0000000 -1.0000000  0.0000000 )
                  (  1.0000000  0.0000000  0.0000000 )


      isym = 10     180 deg rotation - cart. axis [-1,0,1]       

 cryst.   s(10) = (     0          0         -1      )
                  (     0         -1          0      )
                  (    -1          0          0      )

 cart.    s(10) = (  0.0000000  0.0000000 -1.0000000 )
                  (  0.0000000 -1.0000000  0.0000000 )
                  ( -1.0000000  0.0000000  0.0000000 )


      isym = 11      90 deg rotation - cart. axis [0,1,0]        

 cryst.   s(11) = (     0          0         -1      )
                  (     0          1          0      )
                  (     1          0          0      )

 cart.    s(11) = (  0.0000000  0.0000000  1.0000000 )
                  (  0.0000000  1.0000000  0.0000000 )
                  ( -1.0000000  0.0000000  0.0000000 )


      isym = 12      90 deg rotation - cart. axis [0,-1,0]       

 cryst.   s(12) = (     0          0          1      )
                  (     0          1          0      )
                  (    -1          0          0      )

 cart.    s(12) = (  0.0000000  0.0000000 -1.0000000 )
                  (  0.0000000  1.0000000  0.0000000 )
                  (  1.0000000  0.0000000  0.0000000 )


      isym = 13     180 deg rotation - cart. axis [0,1,1]        

 cryst.   s(13) = (    -1          0          0      )
                  (     0          0          1      )
                  (     0          1          0      )

 cart.    s(13) = ( -1.0000000  0.0000000  0.0000000 )
                  (  0.0000000  0.0000000  1.0000000 )
                  (  0.0000000  1.0000000  0.0000000 )


      isym = 14     180 deg rotation - cart. axis [0,1,-1]       

 cryst.   s(14) = (    -1          0          0      )
                  (     0          0         -1      )
                  (     0         -1          0      )

 cart.    s(14) = ( -1.0000000  0.0000000  0.0000000 )
                  (  0.0000000  0.0000000 -1.0000000 )
                  (  0.0000000 -1.0000000  0.0000000 )


      isym = 15      90 deg rotation - cart. axis [-1,0,0]       

 cryst.   s(15) = (     1          0          0      )
                  (     0          0         -1      )
                  (     0          1          0      )

 cart.    s(15) = (  1.0000000  0.0000000  0.0000000 )
                  (  0.0000000  0.0000000  1.0000000 )
                  (  0.0000000 -1.0000000  0.0000000 )


      isym = 16      90 deg rotation - cart. axis [1,0,0]        

 cryst.   s(16) = (     1          0          0      )
                  (     0          0          1      )
                  (     0         -1          0      )

 cart.    s(16) = (  1.0000000  0.0000000  0.0000000 )
                  (  0.0000000  0.0000000 -1.0000000 )
                  (  0.0000000  1.0000000  0.0000000 )


      isym = 17     120 deg rotation - cart. axis [-1,-1,-1]     

 cryst.   s(17) = (     0          0          1      )
                  (     1          0          0      )
                  (     0          1          0      )

 cart.    s(17) = (  0.0000000  1.0000000  0.0000000 )
                  (  0.0000000  0.0000000  1.0000000 )
                  (  1.0000000  0.0000000  0.0000000 )


      isym = 18     120 deg rotation - cart. axis [-1,1,1]       

 cryst.   s(18) = (     0          0         -1      )
                  (    -1          0          0      )
                  (     0          1          0      )

 cart.    s(18) = (  0.0000000 -1.0000000  0.0000000 )
                  (  0.0000000  0.0000000  1.0000000 )
                  ( -1.0000000  0.0000000  0.0000000 )


      isym = 19     120 deg rotation - cart. axis [1,1,-1]       

 cryst.   s(19) = (     0          0         -1      )
                  (     1          0          0      )
                  (     0         -1          0      )

 cart.    s(19) = (  0.0000000  1.0000000  0.0000000 )
                  (  0.0000000  0.0000000 -1.0000000 )
                  ( -1.0000000  0.0000000  0.0000000 )


      isym = 20     120 deg rotation - cart. axis [1,-1,1]       

 cryst.   s(20) = (     0          0          1      )
                  (    -1          0          0      )
                  (     0         -1          0      )

 cart.    s(20) = (  0.0000000 -1.0000000  0.0000000 )
                  (  0.0000000  0.0000000 -1.0000000 )
                  (  1.0000000  0.0000000  0.0000000 )


      isym = 21     120 deg rotation - cart. axis [1,1,1]        

 cryst.   s(21) = (     0          1          0      )
                  (     0          0          1      )
                  (     1          0          0      )

 cart.    s(21) = (  0.0000000  0.0000000  1.0000000 )
                  (  1.0000000  0.0000000  0.0000000 )
                  (  0.0000000  1.0000000  0.0000000 )


      isym = 22     120 deg rotation - cart. axis [-1,1,-1]      

 cryst.   s(22) = (     0         -1          0      )
                  (     0          0         -1      )
                  (     1          0          0      )

 cart.    s(22) = (  0.0000000  0.0000000  1.0000000 )
                  ( -1.0000000  0.0000000  0.0000000 )
                  (  0.0000000 -1.0000000  0.0000000 )


      isym = 23     120 deg rotation - cart. axis [1,-1,-1]      

 cryst.   s(23) = (     0         -1          0      )
                  (     0          0          1      )
                  (    -1          0          0      )

 cart.    s(23) = (  0.0000000  0.0000000 -1.0000000 )
                  ( -1.0000000  0.0000000  0.0000000 )
                  (  0.0000000  1.0000000  0.0000000 )


      isym = 24     120 deg rotation - cart. axis [-1,-1,1]      

 cryst.   s(24) = (     0          1          0      )
                  (     0          0         -1      )
                  (    -1          0          0      )

 cart.    s(24) = (  0.0000000  0.0000000 -1.0000000 )
                  (  1.0000000  0.0000000  0.0000000 )
                  (  0.0000000 -1.0000000  0.0000000 )


      isym = 25     inversion                                    

 cryst.   s(25) = (    -1          0          0      )
                  (     0         -1          0      )
                  (     0          0         -1      )

 cart.    s(25) = ( -1.0000000  0.0000000  0.0000000 )
                  (  0.0000000 -1.0000000  0.0000000 )
                  (  0.0000000  0.0000000 -1.0000000 )


      isym = 26     inv. 180 deg rotation - cart. axis [0,0,1]   

 cryst.   s(26) = (     1          0          0      )
                  (     0          1          0      )
                  (     0          0         -1      )

 cart.    s(26) = (  1.0000000  0.0000000  0.0000000 )
                  (  0.0000000  1.0000000  0.0000000 )
                  (  0.0000000  0.0000000 -1.0000000 )


      isym = 27     inv. 180 deg rotation - cart. axis [0,1,0]   

 cryst.   s(27) = (     1          0          0      )
                  (     0         -1          0      )
                  (     0          0          1      )

 cart.    s(27) = (  1.0000000  0.0000000  0.0000000 )
                  (  0.0000000 -1.0000000  0.0000000 )
                  (  0.0000000  0.0000000  1.0000000 )


      isym = 28     inv. 180 deg rotation - cart. axis [1,0,0]   

 cryst.   s(28) = (    -1          0          0      )
                  (     0          1          0      )
                  (     0          0          1      )

 cart.    s(28) = ( -1.0000000  0.0000000  0.0000000 )
                  (  0.0000000  1.0000000  0.0000000 )
                  (  0.0000000  0.0000000  1.0000000 )


      isym = 29     inv. 180 deg rotation - cart. axis [1,1,0]   

 cryst.   s(29) = (     0         -1          0      )
                  (    -1          0          0      )
                  (     0          0          1      )

 cart.    s(29) = (  0.0000000 -1.0000000  0.0000000 )
                  ( -1.0000000  0.0000000  0.0000000 )
                  (  0.0000000  0.0000000  1.0000000 )


      isym = 30     inv. 180 deg rotation - cart. axis [1,-1,0]  

 cryst.   s(30) = (     0          1          0      )
                  (     1          0          0      )
                  (     0          0          1      )

 cart.    s(30) = (  0.0000000  1.0000000  0.0000000 )
                  (  1.0000000  0.0000000  0.0000000 )
                  (  0.0000000  0.0000000  1.0000000 )


      isym = 31     inv.  90 deg rotation - cart. axis [0,0,-1]  

 cryst.   s(31) = (     0          1          0      )
                  (    -1          0          0      )
                  (     0          0         -1      )

 cart.    s(31) = (  0.0000000 -1.0000000  0.0000000 )
                  (  1.0000000  0.0000000  0.0000000 )
                  (  0.0000000  0.0000000 -1.0000000 )


      isym = 32     inv.  90 deg rotation - cart. axis [0,0,1]   

 cryst.   s(32) = (     0         -1          0      )
                  (     1          0          0      )
                  (     0          0         -1      )

 cart.    s(32) = (  0.0000000  1.0000000  0.0000000 )
                  ( -1.0000000  0.0000000  0.0000000 )
                  (  0.0000000  0.0000000 -1.0000000 )


      isym = 33     inv. 180 deg rotation - cart. axis [1,0,1]   

 cryst.   s(33) = (     0          0         -1      )
                  (     0          1          0      )
                  (    -1          0          0      )

 cart.    s(33) = (  0.0000000  0.0000000 -1.0000000 )
                  (  0.0000000  1.0000000  0.0000000 )
                  ( -1.0000000  0.0000000  0.0000000 )


      isym = 34     inv. 180 deg rotation - cart. axis [-1,0,1]  

 cryst.   s(34) = (     0          0          1      )
                  (     0          1          0      )
                  (     1          0          0      )

 cart.    s(34) = (  0.0000000  0.0000000  1.0000000 )
                  (  0.0000000  1.0000000  0.0000000 )
                  (  1.0000000  0.0000000  0.0000000 )


      isym = 35     inv.  90 deg rotation - cart. axis [0,1,0]   

 cryst.   s(35) = (     0          0          1      )
                  (     0         -1          0      )
                  (    -1          0          0      )

 cart.    s(35) = (  0.0000000  0.0000000 -1.0000000 )
                  (  0.0000000 -1.0000000  0.0000000 )
                  (  1.0000000  0.0000000  0.0000000 )


      isym = 36     inv.  90 deg rotation - cart. axis [0,-1,0]  

 cryst.   s(36) = (     0          0         -1      )
                  (     0         -1          0      )
                  (     1          0          0      )

 cart.    s(36) = (  0.0000000  0.0000000  1.0000000 )
                  (  0.0000000 -1.0000000  0.0000000 )
                  ( -1.0000000  0.0000000  0.0000000 )


      isym = 37     inv. 180 deg rotation - cart. axis [0,1,1]   

 cryst.   s(37) = (     1          0          0      )
                  (     0          0         -1      )
                  (     0         -1          0      )

 cart.    s(37) = (  1.0000000  0.0000000  0.0000000 )
                  (  0.0000000  0.0000000 -1.0000000 )
                  (  0.0000000 -1.0000000  0.0000000 )


      isym = 38     inv. 180 deg rotation - cart. axis [0,1,-1]  

 cryst.   s(38) = (     1          0          0      )
                  (     0          0          1      )
                  (     0          1          0      )

 cart.    s(38) = (  1.0000000  0.0000000  0.0000000 )
                  (  0.0000000  0.0000000  1.0000000 )
                  (  0.0000000  1.0000000  0.0000000 )


      isym = 39     inv.  90 deg rotation - cart. axis [-1,0,0]  

 cryst.   s(39) = (    -1          0          0      )
                  (     0          0          1      )
                  (     0         -1          0      )

 cart.    s(39) = ( -1.0000000  0.0000000  0.0000000 )
                  (  0.0000000  0.0000000 -1.0000000 )
                  (  0.0000000  1.0000000  0.0000000 )


      isym = 40     inv.  90 deg rotation - cart. axis [1,0,0]   

 cryst.   s(40) = (    -1          0          0      )
                  (     0          0         -1      )
                  (     0          1          0      )

 cart.    s(40) = ( -1.0000000  0.0000000  0.0000000 )
                  (  0.0000000  0.0000000  1.0000000 )
                  (  0.0000000 -1.0000000  0.0000000 )


      isym = 41     inv. 120 deg rotation - cart. axis [-1,-1,-1]

 cryst.   s(41) = (     0          0         -1      )
                  (    -1          0          0      )
                  (     0         -1          0      )

 cart.    s(41) = (  0.0000000 -1.0000000  0.0000000 )
                  (  0.0000000  0.0000000 -1.0000000 )
                  ( -1.0000000  0.0000000  0.0000000 )


      isym = 42     inv. 120 deg rotation - cart. axis [-1,1,1]  

 cryst.   s(42) = (     0          0          1      )
                  (     1          0          0      )
                  (     0         -1          0      )

 cart.    s(42) = (  0.0000000  1.0000000  0.0000000 )
                  (  0.0000000  0.0000000 -1.0000000 )
                  (  1.0000000  0.0000000  0.0000000 )


      isym = 43     inv. 120 deg rotation - cart. axis [1,1,-1]  

 cryst.   s(43) = (     0          0          1      )
                  (    -1          0          0      )
                  (     0          1          0      )

 cart.    s(43) = (  0.0000000 -1.0000000  0.0000000 )
                  (  0.0000000  0.0000000  1.0000000 )
                  (  1.0000000  0.0000000  0.0000000 )


      isym = 44     inv. 120 deg rotation - cart. axis [1,-1,1]  

 cryst.   s(44) = (     0          0         -1      )
                  (     1          0          0      )
                  (     0          1          0      )

 cart.    s(44) = (  0.0000000  1.0000000  0.0000000 )
                  (  0.0000000  0.0000000  1.0000000 )
                  ( -1.0000000  0.0000000  0.0000000 )


      isym = 45     inv. 120 deg rotation - cart. axis [1,1,1]   

 cryst.   s(45) = (     0         -1          0      )
                  (     0          0         -1      )
                  (    -1          0          0      )

 cart.    s(45) = (  0.0000000  0.0000000 -1.0000000 )
                  ( -1.0000000  0.0000000  0.0000000 )
                  (  0.0000000 -1.0000000  0.0000000 )


      isym = 46     inv. 120 deg rotation - cart. axis [-1,1,-1] 

 cryst.   s(46) = (     0          1          0      )
                  (     0          0          1      )
                  (    -1          0          0      )

 cart.    s(46) = (  0.0000000  0.0000000 -1.0000000 )
                  (  1.0000000  0.0000000  0.0000000 )
                  (  0.0000000  1.0000000  0.0000000 )


      isym = 47     inv. 120 deg rotation - cart. axis [1,-1,-1] 

 cryst.   s(47) = (     0          1          0      )
                  (     0          0         -1      )
                  (     1          0          0      )

 cart.    s(47) = (  0.0000000  0.0000000  1.0000000 )
                  (  1.0000000  0.0000000  0.0000000 )
                  (  0.0000000 -1.0000000  0.0000000 )


      isym = 48     inv. 120 deg rotation - cart. axis [-1,-1,1] 

 cryst.   s(48) = (     0         -1          0      )
                  (     0          0          1      )
                  (     1          0          0      )

 cart.    s(48) = (  0.0000000  0.0000000  1.0000000 )
                  ( -1.0000000  0.0000000  0.0000000 )
                  (  0.0000000  1.0000000  0.0000000 )


   Cartesian axes

     site n.     atom                  positions (alat units)
         1           Mg  tau(   1) = (   0.7500000   0.7500000   0.2500000  )
         2           Mg  tau(   2) = (   0.7500000   0.7500000   0.7500000  )
         3           Mg  tau(   3) = (   0.7500000   0.2500000   0.7500000  )
         4           Mg  tau(   4) = (   0.7500000   0.2500000   0.2500000  )
         5           Mg  tau(   5) = (   0.2500000   0.7500000   0.7500000  )
         6           Mg  tau(   6) = (   0.2500000   0.7500000   0.2500000  )
         7           Mg  tau(   7) = (   0.2500000   0.2500000   0.2500000  )
         8           Mg  tau(   8) = (   0.2500000   0.2500000   0.7500000  )
         9           Fe  tau(   9) = (   0.0000000   0.0000000   0.0000000  )
        10           Fe  tau(  10) = (   0.0000000   0.5000000   0.5000000  )
        11           Fe  tau(  11) = (   0.5000000   0.0000000   0.5000000  )
        12           Fe  tau(  12) = (   0.5000000   0.5000000   0.0000000  )
        13           H   tau(  13) = (   0.0000000   0.7570260   0.0000000  )
        14           H   tau(  14) = (   0.5000000   0.0000000   0.7429740  )
        15           H   tau(  15) = (   0.5000000   0.0000000   0.2570260  )
        16           H   tau(  16) = (   0.5000000   0.7429740   0.0000000  )
        17           H   tau(  17) = (   0.7570260   0.0000000   0.0000000  )
        18           H   tau(  18) = (   0.2429740   0.0000000   0.0000000  )
        19           H   tau(  19) = (   0.0000000   0.2570260   0.5000000  )
        20           H   tau(  20) = (   0.5000000   0.5000000   0.2429740  )
        21           H   tau(  21) = (   0.5000000   0.5000000   0.7570260  )
        22           H   tau(  22) = (   0.5000000   0.2429740   0.5000000  )
        23           H   tau(  23) = (   0.7570260   0.5000000   0.5000000  )
        24           H   tau(  24) = (   0.2429740   0.5000000   0.5000000  )
        25           H   tau(  25) = (   0.5000000   0.7570260   0.5000000  )
        26           H   tau(  26) = (   0.0000000   0.0000000   0.2429740  )
        27           H   tau(  27) = (   0.0000000   0.0000000   0.7570260  )
        28           H   tau(  28) = (   0.0000000   0.7429740   0.5000000  )
        29           H   tau(  29) = (   0.2570260   0.0000000   0.5000000  )
        30           H   tau(  30) = (   0.7429740   0.0000000   0.5000000  )
        31           H   tau(  31) = (   0.5000000   0.2570260   0.0000000  )
        32           H   tau(  32) = (   0.0000000   0.5000000   0.7429740  )
        33           H   tau(  33) = (   0.0000000   0.5000000   0.2570260  )
        34           H   tau(  34) = (   0.0000000   0.2429740   0.0000000  )
        35           H   tau(  35) = (   0.2570260   0.5000000   0.0000000  )
        36           H   tau(  36) = (   0.7429740   0.5000000   0.0000000  )

   Crystallographic axes

     site n.     atom                  positions (cryst. coord.)
         1           Mg  tau(   1) = (  0.7500000  0.7500000  0.2500000  )
         2           Mg  tau(   2) = (  0.7500000  0.7500000  0.7500000  )
         3           Mg  tau(   3) = (  0.7500000  0.2500000  0.7500000  )
         4           Mg  tau(   4) = (  0.7500000  0.2500000  0.2500000  )
         5           Mg  tau(   5) = (  0.2500000  0.7500000  0.7500000  )
         6           Mg  tau(   6) = (  0.2500000  0.7500000  0.2500000  )
         7           Mg  tau(   7) = (  0.2500000  0.2500000  0.2500000  )
         8           Mg  tau(   8) = (  0.2500000  0.2500000  0.7500000  )
         9           Fe  tau(   9) = (  0.0000000  0.0000000  0.0000000  )
        10           Fe  tau(  10) = (  0.0000000  0.5000000  0.5000000  )
        11           Fe  tau(  11) = (  0.5000000  0.0000000  0.5000000  )
        12           Fe  tau(  12) = (  0.5000000  0.5000000  0.0000000  )
        13           H   tau(  13) = (  0.0000000  0.7570260  0.0000000  )
        14           H   tau(  14) = (  0.5000000  0.0000000  0.7429740  )
        15           H   tau(  15) = (  0.5000000  0.0000000  0.2570260  )
        16           H   tau(  16) = (  0.5000000  0.7429740  0.0000000  )
        17           H   tau(  17) = (  0.7570260  0.0000000  0.0000000  )
        18           H   tau(  18) = (  0.2429740  0.0000000  0.0000000  )
        19           H   tau(  19) = (  0.0000000  0.2570260  0.5000000  )
        20           H   tau(  20) = (  0.5000000  0.5000000  0.2429740  )
        21           H   tau(  21) = (  0.5000000  0.5000000  0.7570260  )
        22           H   tau(  22) = (  0.5000000  0.2429740  0.5000000  )
        23           H   tau(  23) = (  0.7570260  0.5000000  0.5000000  )
        24           H   tau(  24) = (  0.2429740  0.5000000  0.5000000  )
        25           H   tau(  25) = (  0.5000000  0.7570260  0.5000000  )
        26           H   tau(  26) = (  0.0000000  0.0000000  0.2429740  )
        27           H   tau(  27) = (  0.0000000  0.0000000  0.7570260  )
        28           H   tau(  28) = (  0.0000000  0.7429740  0.5000000  )
        29           H   tau(  29) = (  0.2570260  0.0000000  0.5000000  )
        30           H   tau(  30) = (  0.7429740  0.0000000  0.5000000  )
        31           H   tau(  31) = (  0.5000000  0.2570260  0.0000000  )
        32           H   tau(  32) = (  0.0000000  0.5000000  0.7429740  )
        33           H   tau(  33) = (  0.0000000  0.5000000  0.2570260  )
        34           H   tau(  34) = (  0.0000000  0.2429740  0.0000000  )
        35           H   tau(  35) = (  0.2570260  0.5000000  0.0000000  )
        36           H   tau(  36) = (  0.7429740  0.5000000  0.0000000  )

     number of k points=    10  Gaussian smearing, width (Ry)=  0.0200
                       cart. coord. in units 2pi/alat
        k(    1) = (   0.0000000   0.0000000   0.0000000), wk =   0.0160000
        k(    2) = (   0.0000000   0.0000000   0.2000000), wk =   0.0960000
        k(    3) = (   0.0000000   0.0000000   0.4000000), wk =   0.0960000
        k(    4) = (   0.0000000   0.2000000   0.2000000), wk =   0.1920000
        k(    5) = (   0.0000000   0.2000000   0.4000000), wk =   0.3840000
        k(    6) = (   0.0000000   0.4000000   0.4000000), wk =   0.1920000
        k(    7) = (   0.2000000   0.2000000   0.2000000), wk =   0.1280000
        k(    8) = (   0.2000000   0.2000000   0.4000000), wk =   0.3840000
        k(    9) = (   0.2000000   0.4000000   0.4000000), wk =   0.3840000
        k(   10) = (   0.4000000   0.4000000   0.4000000), wk =   0.1280000

                       cryst. coord.
        k(    1) = (   0.0000000   0.0000000   0.0000000), wk =   0.0160000
        k(    2) = (   0.0000000   0.0000000   0.2000000), wk =   0.0960000
        k(    3) = (   0.0000000   0.0000000   0.4000000), wk =   0.0960000
        k(    4) = (   0.0000000   0.2000000   0.2000000), wk =   0.1920000
        k(    5) = (   0.0000000   0.2000000   0.4000000), wk =   0.3840000
        k(    6) = (   0.0000000   0.4000000   0.4000000), wk =   0.1920000
        k(    7) = (   0.2000000   0.2000000   0.2000000), wk =   0.1280000
        k(    8) = (   0.2000000   0.2000000   0.4000000), wk =   0.3840000
        k(    9) = (   0.2000000   0.4000000   0.4000000), wk =   0.3840000
        k(   10) = (   0.4000000   0.4000000   0.4000000), wk =   0.1280000

     Dense  grid:  1038085 G-vectors     FFT dimensions: ( 125, 125, 125)

     Smooth grid:   199949 G-vectors     FFT dimensions: (  75,  75,  75)

     Dynamical RAM for                 wfc:       0.74 MB

     Dynamical RAM for     wfc (w. buffer):       4.43 MB

     Dynamical RAM for           str. fact:       1.49 MB

     Dynamical RAM for           local pot:       0.00 MB

     Dynamical RAM for          nlocal pot:       2.19 MB

     Dynamical RAM for                qrad:       7.91 MB

     Dynamical RAM for          rho,v,vnew:       2.92 MB

     Dynamical RAM for               rhoin:       0.97 MB

     Dynamical RAM for            rho*nmix:       7.92 MB

     Dynamical RAM for           G-vectors:       1.90 MB

     Dynamical RAM for          h,s,v(r/c):       0.70 MB

     Dynamical RAM for          <psi|beta>:       0.17 MB

     Dynamical RAM for                 psi:       1.48 MB

     Dynamical RAM for                hpsi:       1.48 MB

     Dynamical RAM for                spsi:       1.48 MB

     Dynamical RAM for      wfcinit/wfcrot:       2.84 MB

     Dynamical RAM for           addusdens:      52.23 MB

     Dynamical RAM for          addusforce:      63.70 MB

     Dynamical RAM for         addusstress:      49.87 MB

     Estimated static dynamical RAM per process >      26.17 MB

     Estimated max dynamical RAM per process >      97.79 MB

     Estimated total dynamical RAM >       5.86 GB

     Check: negative core charge=   -0.000001

     Initial potential from superposition of free atoms

     starting charge     103.9909, renormalised to     104.0000
     Starting wfcs are  108 randomized atomic wfcs
     Checking if some PAW data can be deallocated... 
       PAW data deallocated on   56 nodes for type:  1
       PAW data deallocated on   48 nodes for type:  3

     total cpu time spent up to now is        2.0 secs

     Self-consistent Calculation

     iteration #  1     ecut=    90.00 Ry     beta= 0.40
     Davidson diagonalization with overlap

---- Real-time Memory Report at c_bands before calling an iterative solver
           120 MiB given to the printing process from OS
             0 MiB allocation reported by mallinfo(arena+hblkhd)
        232854 MiB available memory on the node where the printing process lives
------------------
     ethr =  1.00E-02,  avg # of iterations =  2.0

     total cpu time spent up to now is        3.4 secs

     total energy              =   -1596.63399265 Ry
     estimated scf accuracy    <       4.50836811 Ry

     iteration #  2     ecut=    90.00 Ry     beta= 0.40
     Davidson diagonalization with overlap

---- Real-time Memory Report at c_bands before calling an iterative solver
           145 MiB given to the printing process from OS
             0 MiB allocation reported by mallinfo(arena+hblkhd)
        232256 MiB available memory on the node where the printing process lives
------------------
     ethr =  4.33E-03,  avg # of iterations =  4.7

     total cpu time spent up to now is        5.0 secs

     total energy              =   -1596.04272241 Ry
     estimated scf accuracy    <      18.38680306 Ry

     iteration #  3     ecut=    90.00 Ry     beta= 0.40
     Davidson diagonalization with overlap

---- Real-time Memory Report at c_bands before calling an iterative solver
           148 MiB given to the printing process from OS
             0 MiB allocation reported by mallinfo(arena+hblkhd)
        232209 MiB available memory on the node where the printing process lives
------------------
     ethr =  4.33E-03,  avg # of iterations =  4.0

     total cpu time spent up to now is        6.5 secs

     total energy              =   -1597.88975083 Ry
     estimated scf accuracy    <       0.46327382 Ry

     iteration #  4     ecut=    90.00 Ry     beta= 0.40
     Davidson diagonalization with overlap

---- Real-time Memory Report at c_bands before calling an iterative solver
           149 MiB given to the printing process from OS
             0 MiB allocation reported by mallinfo(arena+hblkhd)
        232205 MiB available memory on the node where the printing process lives
------------------
     ethr =  4.45E-04,  avg # of iterations =  3.3

     total cpu time spent up to now is        7.9 secs

     total energy              =   -1597.97262109 Ry
     estimated scf accuracy    <       0.03062963 Ry

     iteration #  5     ecut=    90.00 Ry     beta= 0.40
     Davidson diagonalization with overlap

---- Real-time Memory Report at c_bands before calling an iterative solver
           150 MiB given to the printing process from OS
             0 MiB allocation reported by mallinfo(arena+hblkhd)
        232203 MiB available memory on the node where the printing process lives
------------------
     ethr =  2.95E-05,  avg # of iterations =  4.8

     total cpu time spent up to now is        9.6 secs

     total energy              =   -1597.98108046 Ry
     estimated scf accuracy    <       0.00386806 Ry

     iteration #  6     ecut=    90.00 Ry     beta= 0.40
     Davidson diagonalization with overlap

---- Real-time Memory Report at c_bands before calling an iterative solver
           150 MiB given to the printing process from OS
             0 MiB allocation reported by mallinfo(arena+hblkhd)
        232207 MiB available memory on the node where the printing process lives
------------------
     ethr =  3.72E-06,  avg # of iterations =  4.9

     total cpu time spent up to now is       11.3 secs

     total energy              =   -1597.98131956 Ry
     estimated scf accuracy    <       0.01185164 Ry

     iteration #  7     ecut=    90.00 Ry     beta= 0.40
     Davidson diagonalization with overlap

---- Real-time Memory Report at c_bands before calling an iterative solver
           151 MiB given to the printing process from OS
             0 MiB allocation reported by mallinfo(arena+hblkhd)
        232206 MiB available memory on the node where the printing process lives
------------------
     ethr =  3.72E-06,  avg # of iterations =  2.7

     total cpu time spent up to now is       12.6 secs

     total energy              =   -1597.98207192 Ry
     estimated scf accuracy    <       0.00048974 Ry

     iteration #  8     ecut=    90.00 Ry     beta= 0.40
     Davidson diagonalization with overlap

---- Real-time Memory Report at c_bands before calling an iterative solver
           151 MiB given to the printing process from OS
             0 MiB allocation reported by mallinfo(arena+hblkhd)
        232205 MiB available memory on the node where the printing process lives
------------------
     ethr =  4.71E-07,  avg # of iterations =  4.8

     total cpu time spent up to now is       14.3 secs

     total energy              =   -1597.98223476 Ry
     estimated scf accuracy    <       0.00021327 Ry

     iteration #  9     ecut=    90.00 Ry     beta= 0.40
     Davidson diagonalization with overlap

---- Real-time Memory Report at c_bands before calling an iterative solver
           152 MiB given to the printing process from OS
             0 MiB allocation reported by mallinfo(arena+hblkhd)
        232200 MiB available memory on the node where the printing process lives
------------------
     ethr =  2.05E-07,  avg # of iterations =  2.6

     total cpu time spent up to now is       15.6 secs

     total energy              =   -1597.98223597 Ry
     estimated scf accuracy    <       0.00007294 Ry

     iteration # 10     ecut=    90.00 Ry     beta= 0.40
     Davidson diagonalization with overlap

---- Real-time Memory Report at c_bands before calling an iterative solver
           153 MiB given to the printing process from OS
             0 MiB allocation reported by mallinfo(arena+hblkhd)
        232193 MiB available memory on the node where the printing process lives
------------------
     ethr =  7.01E-08,  avg # of iterations =  4.4

     total cpu time spent up to now is       17.1 secs

     total energy              =   -1597.98224430 Ry
     estimated scf accuracy    <       0.00001486 Ry

     iteration # 11     ecut=    90.00 Ry     beta= 0.40
     Davidson diagonalization with overlap

---- Real-time Memory Report at c_bands before calling an iterative solver
           153 MiB given to the printing process from OS
             0 MiB allocation reported by mallinfo(arena+hblkhd)
        232184 MiB available memory on the node where the printing process lives
------------------
     ethr =  1.43E-08,  avg # of iterations =  4.2

     total cpu time spent up to now is       18.7 secs

     total energy              =   -1597.98224822 Ry
     estimated scf accuracy    <       0.00000091 Ry

     iteration # 12     ecut=    90.00 Ry     beta= 0.40
     Davidson diagonalization with overlap

---- Real-time Memory Report at c_bands before calling an iterative solver
           153 MiB given to the printing process from OS
             0 MiB allocation reported by mallinfo(arena+hblkhd)
        232189 MiB available memory on the node where the printing process lives
------------------
     ethr =  8.77E-10,  avg # of iterations =  5.8

     total cpu time spent up to now is       20.6 secs

     total energy              =   -1597.98224880 Ry
     estimated scf accuracy    <       0.00000010 Ry

     iteration # 13     ecut=    90.00 Ry     beta= 0.40
     Davidson diagonalization with overlap

---- Real-time Memory Report at c_bands before calling an iterative solver
           153 MiB given to the printing process from OS
             0 MiB allocation reported by mallinfo(arena+hblkhd)
        232154 MiB available memory on the node where the printing process lives
------------------
     ethr =  9.34E-11,  avg # of iterations =  5.7

     total cpu time spent up to now is       22.3 secs

     End of self-consistent calculation

          k = 0.0000 0.0000 0.0000 ( 24885 PWs)   bands (ev):

   -79.7365 -79.7364 -79.7364 -79.7364 -45.9841 -45.9841 -45.9841 -45.9838
   -45.9838 -45.9838 -45.9838 -45.9838 -45.9838 -45.9837 -45.9837 -45.9837
    -4.1007  -1.4712  -1.4712  -1.4712   0.0615   0.0615   0.0615   0.9923
     0.9923   0.9923   1.8993   1.8993   1.8993   1.8993   1.8993   1.8993
     2.2235   2.2235   2.6061   2.6062   2.6062   3.3349   3.3349   3.3349
     4.0625   4.0625   4.0625   4.7280   4.7280   4.7280   5.5054   5.5054
     5.5054   5.5054   5.5054   5.5054   7.3168   7.3168   7.3168   9.3097
     9.3097   9.3097  10.8012  10.8012  10.8013  10.8974

     occupation numbers 
     1.0000   1.0000   1.0000   1.0000   1.0000   1.0000   1.0000   1.0000
     1.0000   1.0000   1.0000   1.0000   1.0000   1.0000   1.0000   1.0000
     1.0000   1.0000   1.0000   1.0000   1.0000   1.0000   1.0000   1.0000
     1.0000   1.0000   1.0000   1.0000   1.0000   1.0000   1.0000   1.0000
     1.0000   1.0000   1.0000   1.0000   1.0000   1.0000   1.0000   1.0000
     1.0000   1.0000   1.0000   1.0000   1.0000   1.0000   1.0000   1.0000
     1.0000   1.0000   1.0000   1.0000   0.0000   0.0000   0.0000   0.0000
     0.0000   0.0000   0.0000   0.0000   0.0000   0.0000

          k = 0.0000 0.0000 0.2000 ( 25000 PWs)   bands (ev):

   -79.7365 -79.7365 -79.7365 -79.7364 -45.9841 -45.9841 -45.9841 -45.9839
   -45.9839 -45.9839 -45.9838 -45.9838 -45.9838 -45.9838 -45.9838 -45.9838
    -3.9600  -2.0454  -1.3461  -1.3460   0.1742   0.1742   0.4774   0.4774
     0.5524   1.2969   1.5850   1.5850   1.9882   1.9882   2.0129   2.1121
     2.1121   2.2582   2.5676   2.8390   2.8390   3.0907   3.0907   3.2783
     4.1229   4.3760   4.3760   4.6615   4.9198   4.9198   5.4558   5.4558
     5.4845   5.4845   5.5055   5.5055   7.3798   7.5556   7.5556   9.3719
     9.5187   9.5187   9.8196  10.4443  11.0451  11.0452

     occupation numbers 
     1.0000   1.0000   1.0000   1.0000   1.0000   1.0000   1.0000   1.0000
     1.0000   1.0000   1.0000   1.0000   1.0000   1.0000   1.0000   1.0000
     1.0000   1.0000   1.0000   1.0000   1.0000   1.0000   1.0000   1.0000
     1.0000   1.0000   1.0000   1.0000   1.0000   1.0000   1.0000   1.0000
     1.0000   1.0000   1.0000   1.0000   1.0000   1.0000   1.0000   1.0000
     1.0000   1.0000   1.0000   1.0000   1.0000   1.0000   1.0000   1.0000
     1.0000   1.0000   1.0000   1.0000   0.0000   0.0000   0.0000   0.0000
     0.0000   0.0000   0.0000   0.0000   0.0000   0.0000

          k = 0.0000 0.0000 0.4000 ( 24984 PWs)   bands (ev):

   -79.7365 -79.7365 -79.7365 -79.7364 -45.9840 -45.9840 -45.9840 -45.9839
   -45.9839 -45.9839 -45.9839 -45.9838 -45.9838 -45.9838 -45.9838 -45.9838
    -3.5448  -2.8802  -1.0066  -1.0066  -0.2302  -0.2302   0.5026   0.5026
     1.0090   1.0090   1.0646   1.5536   2.1734   2.1989   2.1989   2.2465
     2.2465   2.3508   2.4689   2.6430   2.6430   2.9406   3.2036   3.2036
     4.2843   4.4902   4.9041   4.9041   5.2146   5.2146   5.2765   5.2765
     5.4024   5.4024   5.5056   5.5056   7.6796   8.2278   8.2279   8.4736
     9.5704   9.9313   9.9941   9.9941  10.1975  10.1975

     occupation numbers 
     1.0000   1.0000   1.0000   1.0000   1.0000   1.0000   1.0000   1.0000
     1.0000   1.0000   1.0000   1.0000   1.0000   1.0000   1.0000   1.0000
     1.0000   1.0000   1.0000   1.0000   1.0000   1.0000   1.0000   1.0000
     1.0000   1.0000   1.0000   1.0000   1.0000   1.0000   1.0000   1.0000
     1.0000   1.0000   1.0000   1.0000   1.0000   1.0000   1.0000   1.0000
     1.0000   1.0000   1.0000   1.0000   1.0000   1.0000   1.0000   1.0000
     1.0000   1.0000   1.0000   1.0000   0.0000   0.0000   0.0000   0.0000
     0.0000   0.0000   0.0000   0.0000   0.0000   0.0000

          k = 0.0000 0.2000 0.2000 ( 24952 PWs)   bands (ev):

   -79.7365 -79.7365 -79.7365 -79.7364 -45.9840 -45.9840 -45.9840 -45.9839
   -45.9839 -45.9838 -45.9838 -45.9838 -45.9838 -45.9838 -45.9838 -45.9837
    -3.8200  -1.9162  -1.9162  -1.2342  -0.0257   0.2858   0.5164   0.5164
     0.8540   0.8540   1.6793   1.6793   1.7304   1.9887   2.0451   2.1159
     2.2073   2.2073   2.6764   2.8395   2.8551   2.8552   2.9651   3.6301
     4.4250   4.4250   4.5596   4.8122   4.9167   4.9921   5.4372   5.4372
     5.4445   5.4725   5.4823   5.4823   7.6075   7.6075   7.7119   9.5855
     9.5855   9.7371   9.7895  10.1823  10.5091  10.9260

     occupation numbers 
     1.0000   1.0000   1.0000   1.0000   1.0000   1.0000   1.0000   1.0000
     1.0000   1.0000   1.0000   1.0000   1.0000   1.0000   1.0000   1.0000
     1.0000   1.0000   1.0000   1.0000   1.0000   1.0000   1.0000   1.0000
     1.0000   1.0000   1.0000   1.0000   1.0000   1.0000   1.0000   1.0000
     1.0000   1.0000   1.0000   1.0000   1.0000   1.0000   1.0000   1.0000
     1.0000   1.0000   1.0000   1.0000   1.0000   1.0000   1.0000   1.0000
     1.0000   1.0000   1.0000   1.0000   0.0000   0.0000   0.0000   0.0000
     0.0000   0.0000   0.0000   0.0000   0.0000   0.0000

          k = 0.0000 0.2000 0.4000 ( 24952 PWs)   bands (ev):

   -79.7365 -79.7365 -79.7365 -79.7364 -45.9840 -45.9840 -45.9840 -45.9839
   -45.9839 -45.9839 -45.9838 -45.9838 -45.9838 -45.9838 -45.9838 -45.9838
    -3.4067  -2.7458  -1.5453  -1.0983  -0.5449  -0.1113   0.6108   0.8979
     1.0064   1.1114   1.4011   1.4469   1.5628   1.9094   1.9531   2.2317
     2.2583   2.3714   2.3998   2.4833   3.0799   3.2762   3.2841   3.5484
     4.5545   4.7162   4.9310   4.9345   5.1918   5.1921   5.2650   5.2844
     5.3614   5.3927   5.4696   5.4765   7.8738   8.1852   8.2238   8.6170
     9.7831   9.7932   9.8945  10.1477  10.2628  10.2733

     occupation numbers 
     1.0000   1.0000   1.0000   1.0000   1.0000   1.0000   1.0000   1.0000
     1.0000   1.0000   1.0000   1.0000   1.0000   1.0000   1.0000   1.0000
     1.0000   1.0000   1.0000   1.0000   1.0000   1.0000   1.0000   1.0000
     1.0000   1.0000   1.0000   1.0000   1.0000   1.0000   1.0000   1.0000
     1.0000   1.0000   1.0000   1.0000   1.0000   1.0000   1.0000   1.0000
     1.0000   1.0000   1.0000   1.0000   1.0000   1.0000   1.0000   1.0000
     1.0000   1.0000   1.0000   1.0000   0.0000   0.0000   0.0000   0.0000
     0.0000   0.0000   0.0000   0.0000   0.0000   0.0000

          k = 0.0000 0.4000 0.4000 ( 24978 PWs)   bands (ev):

   -79.7365 -79.7365 -79.7365 -79.7364 -45.9840 -45.9840 -45.9840 -45.9840
   -45.9839 -45.9839 -45.9839 -45.9838 -45.9838 -45.9838 -45.9838 -45.9838
    -2.9998  -2.3513  -2.3513  -1.7354  -0.3134   0.2674   0.2675   0.8612
     0.9254   1.4085   1.4085   1.5214   1.5214   1.6056   1.6989   1.8628
     2.3337   2.3867   2.3868   2.4518   3.5661   3.5970   3.5970   3.8843
     4.9982   4.9982   5.0254   5.0325   5.1650   5.1834   5.2185   5.2185
     5.2690   5.3690   5.3690   5.3697   8.3033   8.3672   8.3672   8.9881
     9.0353   9.4319   9.4319   9.5006  10.4874  10.4875

     occupation numbers 
     1.0000   1.0000   1.0000   1.0000   1.0000   1.0000   1.0000   1.0000
     1.0000   1.0000   1.0000   1.0000   1.0000   1.0000   1.0000   1.0000
     1.0000   1.0000   1.0000   1.0000   1.0000   1.0000   1.0000   1.0000
     1.0000   1.0000   1.0000   1.0000   1.0000   1.0000   1.0000   1.0000
     1.0000   1.0000   1.0000   1.0000   1.0000   1.0000   1.0000   1.0000
     1.0000   1.0000   1.0000   1.0000   1.0000   1.0000   1.0000   1.0000
     1.0000   1.0000   1.0000   1.0000   0.0000   0.0000   0.0000   0.0000
     0.0000   0.0000   0.0000   0.0000   0.0000   0.0000

          k = 0.2000 0.2000 0.2000 ( 24984 PWs)   bands (ev):

   -79.7365 -79.7365 -79.7365 -79.7364 -45.9840 -45.9840 -45.9840 -45.9839
   -45.9839 -45.9839 -45.9838 -45.9838 -45.9838 -45.9838 -45.9837 -45.9837
    -3.6807  -1.7933  -1.7933  -1.7933   0.1047   0.1047   0.1047   0.8175
     0.8175   0.8175   1.7810   1.7810   1.7810   1.8753   1.9948   1.9948
     2.3144   2.3144   2.3144   2.9557   2.9557   2.9557   3.4370   3.4370
     4.6040   4.6040   4.6040   4.9354   4.9737   4.9737   5.4294   5.4294
     5.4294   5.4455   5.4455   5.4455   7.7573   7.7573   7.7573   9.8087
     9.8087   9.8509   9.8509   9.8509  10.2831  10.6790

     occupation numbers 
     1.0000   1.0000   1.0000   1.0000   1.0000   1.0000   1.0000   1.0000
     1.0000   1.0000   1.0000   1.0000   1.0000   1.0000   1.0000   1.0000
     1.0000   1.0000   1.0000   1.0000   1.0000   1.0000   1.0000   1.0000
     1.0000   1.0000   1.0000   1.0000   1.0000   1.0000   1.0000   1.0000
     1.0000   1.0000   1.0000   1.0000   1.0000   1.0000   1.0000   1.0000
     1.0000   1.0000   1.0000   1.0000   1.0000   1.0000   1.0000   1.0000
     1.0000   1.0000   1.0000   1.0000   0.0000   0.0000   0.0000   0.0000
     0.0000   0.0000   0.0000   0.0000   0.0000   0.0000

          k = 0.2000 0.2000 0.4000 ( 24965 PWs)   bands (ev):

   -79.7365 -79.7365 -79.7365 -79.7364 -45.9840 -45.9840 -45.9840 -45.9839
   -45.9839 -45.9839 -45.9838 -45.9838 -45.9838 -45.9838 -45.9838 -45.9838
    -3.2699  -2.6137  -1.4727  -1.4726  -0.5864  -0.5864   0.4887   1.0533
     1.0533   1.1009   1.4272   1.4908   1.4908   1.7764   1.8965   1.9817
     2.3869   2.3869   2.9193   2.9752   3.1337   3.3157   3.3157   3.4928
     4.7234   4.8682   4.9617   4.9617   5.1247   5.2170   5.2731   5.2731
     5.3397   5.3669   5.4395   5.4395   8.0035   8.1993   8.1993   8.7132
     9.7219   9.7219  10.0124  10.0230  10.1987  10.3226

     occupation numbers 
     1.0000   1.0000   1.0000   1.0000   1.0000   1.0000   1.0000   1.0000
     1.0000   1.0000   1.0000   1.0000   1.0000   1.0000   1.0000   1.0000
     1.0000   1.0000   1.0000   1.0000   1.0000   1.0000   1.0000   1.0000
     1.0000   1.0000   1.0000   1.0000   1.0000   1.0000   1.0000   1.0000
     1.0000   1.0000   1.0000   1.0000   1.0000   1.0000   1.0000   1.0000
     1.0000   1.0000   1.0000   1.0000   1.0000   1.0000   1.0000   1.0000
     1.0000   1.0000   1.0000   1.0000   0.0000   0.0000   0.0000   0.0000
     0.0000   0.0000   0.0000   0.0000   0.0000   0.0000

          k = 0.2000 0.4000 0.4000 ( 25001 PWs)   bands (ev):

   -79.7365 -79.7365 -79.7365 -79.7364 -45.9840 -45.9840 -45.9840 -45.9840
   -45.9839 -45.9838 -45.9838 -45.9838 -45.9838 -45.9838 -45.9838 -45.9838
    -2.8672  -2.2306  -2.2305  -1.6770  -0.7813  -0.2436  -0.2436   0.3649
     1.2835   1.4761   1.4761   1.6294   1.6629   1.6629   1.7058   1.7909
     2.6363   2.7654   2.7654   3.0188   3.5422   3.5422   3.5467   3.7854
     5.0318   5.0318   5.0510   5.0798   5.0917   5.2154   5.2165   5.2165
     5.2707   5.3285   5.3364   5.3364   8.3360   8.3777   8.3777   9.0068
     9.0498   9.4018   9.4092   9.4092  10.2895  10.5566

     occupation numbers 
     1.0000   1.0000   1.0000   1.0000   1.0000   1.0000   1.0000   1.0000
     1.0000   1.0000   1.0000   1.0000   1.0000   1.0000   1.0000   1.0000
     1.0000   1.0000   1.0000   1.0000   1.0000   1.0000   1.0000   1.0000
     1.0000   1.0000   1.0000   1.0000   1.0000   1.0000   1.0000   1.0000
     1.0000   1.0000   1.0000   1.0000   1.0000   1.0000   1.0000   1.0000
     1.0000   1.0000   1.0000   1.0000   1.0000   1.0000   1.0000   1.0000
     1.0000   1.0000   1.0000   1.0000   0.0000   0.0000   0.0000   0.0000
     0.0000   0.0000   0.0000   0.0000   0.0000   0.0000

          k = 0.4000 0.4000 0.4000 ( 24993 PWs)   bands (ev):

   -79.7365 -79.7365 -79.7365 -79.7364 -45.9841 -45.9841 -45.9841 -45.9840
   -45.9838 -45.9838 -45.9838 -45.9838 -45.9838 -45.9838 -45.9838 -45.9838
    -2.4828  -1.9260  -1.9260  -1.9260  -0.9357  -0.9357  -0.9357  -0.3917
     1.5725   1.5725   1.5725   1.6785   1.6785   1.6785   1.7083   1.7083
     3.3455   3.3455   3.3455   3.5367   3.5367   3.5367   3.6185   3.6185
     4.9969   5.0778   5.0778   5.0778   5.1982   5.1982   5.2045   5.2045
     5.2045   5.2577   5.2577   5.2577   8.5536   8.5536   8.5536   9.0789
     9.0789   9.2200   9.2200   9.2200   9.6036  10.1783

     occupation numbers 
     1.0000   1.0000   1.0000   1.0000   1.0000   1.0000   1.0000   1.0000
     1.0000   1.0000   1.0000   1.0000   1.0000   1.0000   1.0000   1.0000
     1.0000   1.0000   1.0000   1.0000   1.0000   1.0000   1.0000   1.0000
     1.0000   1.0000   1.0000   1.0000   1.0000   1.0000   1.0000   1.0000
     1.0000   1.0000   1.0000   1.0000   1.0000   1.0000   1.0000   1.0000
     1.0000   1.0000   1.0000   1.0000   1.0000   1.0000   1.0000   1.0000
     1.0000   1.0000   1.0000   1.0000   0.0000   0.0000   0.0000   0.0000
     0.0000   0.0000   0.0000   0.0000   0.0000   0.0000

     the Fermi energy is     6.4732 ev

!    total energy              =   -1597.98224887 Ry
     estimated scf accuracy    <          2.6E-09 Ry
     smearing contrib. (-TS)   =      -0.00000006 Ry
     internal energy E=F+TS    =   -1597.98224881 Ry

     The total energy is F=E-TS. E is the sum of the following terms:
     one-electron contribution =    -914.52146005 Ry
     hartree contribution      =     490.64810293 Ry
     xc contribution           =    -168.72108352 Ry
     ewald contribution        =    -465.86684211 Ry
     one-center paw contrib.   =    -539.52096606 Ry
      -> PAW hartree energy AE =       0.72653041 Ry
      -> PAW hartree energy PS =      -0.72517342 Ry
      -> PAW xc energy AE      =     -31.65975425 Ry
      -> PAW xc energy PS      =       1.26393327 Ry
      -> total E_H with PAW    =     490.64945992 Ry
      -> total E_XC with PAW   =    -199.11690450 Ry

     convergence has been achieved in  13 iterations

     Forces acting on atoms (cartesian axes, Ry/au):

     atom    1 type  3   force =     0.00000014    0.00000014   -0.00000014
     atom    2 type  3   force =     0.00000014    0.00000014    0.00000014
     atom    3 type  3   force =     0.00000014   -0.00000014    0.00000014
     atom    4 type  3   force =     0.00000014   -0.00000014   -0.00000014
     atom    5 type  3   force =    -0.00000014    0.00000014    0.00000014
     atom    6 type  3   force =    -0.00000014    0.00000014   -0.00000014
     atom    7 type  3   force =    -0.00000014   -0.00000014   -0.00000014
     atom    8 type  3   force =    -0.00000014   -0.00000014    0.00000014
     atom    9 type  1   force =     0.00000000    0.00000000    0.00000000
     atom   10 type  1   force =     0.00000000    0.00000000    0.00000000
     atom   11 type  1   force =     0.00000000    0.00000000    0.00000000
     atom   12 type  1   force =     0.00000000    0.00000000    0.00000000
     atom   13 type  2   force =     0.00000000   -0.00441046    0.00000000
     atom   14 type  2   force =     0.00000000    0.00000000    0.00441102
     atom   15 type  2   force =     0.00000000    0.00000000   -0.00441102
     atom   16 type  2   force =     0.00000000    0.00441102    0.00000000
     atom   17 type  2   force =    -0.00441046   -0.00000000    0.00000000
     atom   18 type  2   force =     0.00441046    0.00000000    0.00000000
     atom   19 type  2   force =    -0.00000000   -0.00441102    0.00000000
     atom   20 type  2   force =     0.00000000    0.00000000    0.00441091
     atom   21 type  2   force =     0.00000000    0.00000000   -0.00441091
     atom   22 type  2   force =     0.00000000    0.00441091    0.00000000
     atom   23 type  2   force =    -0.00441091   -0.00000000    0.00000000
     atom   24 type  2   force =     0.00441091    0.00000000    0.00000000
     atom   25 type  2   force =    -0.00000000   -0.00441091    0.00000000
     atom   26 type  2   force =     0.00000000    0.00000000    0.00441046
     atom   27 type  2   force =     0.00000000    0.00000000   -0.00441046
     atom   28 type  2   force =    -0.00000000    0.00441102    0.00000000
     atom   29 type  2   force =    -0.00441102    0.00000000    0.00000000
     atom   30 type  2   force =     0.00441102    0.00000000    0.00000000
     atom   31 type  2   force =     0.00000000   -0.00441102    0.00000000
     atom   32 type  2   force =     0.00000000    0.00000000    0.00441102
     atom   33 type  2   force =     0.00000000    0.00000000   -0.00441102
     atom   34 type  2   force =     0.00000000    0.00441046    0.00000000
     atom   35 type  2   force =    -0.00441102    0.00000000    0.00000000
     atom   36 type  2   force =     0.00441102    0.00000000    0.00000000
     The non-local contrib.  to forces
     atom    1 type  3   force =     0.00000032    0.00000032   -0.00000032
     atom    2 type  3   force =     0.00000032    0.00000032    0.00000032
     atom    3 type  3   force =     0.00000032   -0.00000032    0.00000032
     atom    4 type  3   force =     0.00000032   -0.00000032   -0.00000032
     atom    5 type  3   force =    -0.00000032    0.00000032    0.00000032
     atom    6 type  3   force =    -0.00000032    0.00000032   -0.00000032
     atom    7 type  3   force =    -0.00000032   -0.00000032   -0.00000032
     atom    8 type  3   force =    -0.00000032   -0.00000032    0.00000032
     atom    9 type  1   force =     0.00000000    0.00000000    0.00000000
     atom   10 type  1   force =     0.00000000    0.00000000    0.00000000
     atom   11 type  1   force =     0.00000000    0.00000000    0.00000000
     atom   12 type  1   force =     0.00000000    0.00000000    0.00000000
     atom   13 type  2   force =     0.00000000    0.02143564    0.00000000
     atom   14 type  2   force =     0.00000000    0.00000000   -0.02143575
     atom   15 type  2   force =     0.00000000   -0.00000000    0.02143575
     atom   16 type  2   force =    -0.00000000   -0.02143575   -0.00000000
     atom   17 type  2   force =     0.02143564    0.00000000    0.00000000
     atom   18 type  2   force =    -0.02143564    0.00000000   -0.00000000
     atom   19 type  2   force =     0.00000000    0.02143575    0.00000000
     atom   20 type  2   force =    -0.00000000    0.00000000   -0.02143570
     atom   21 type  2   force =     0.00000000   -0.00000000    0.02143570
     atom   22 type  2   force =     0.00000000   -0.02143570   -0.00000000
     atom   23 type  2   force =     0.02143570   -0.00000000    0.00000000
     atom   24 type  2   force =    -0.02143570    0.00000000    0.00000000
     atom   25 type  2   force =    -0.00000000    0.02143570    0.00000000
     atom   26 type  2   force =     0.00000000    0.00000000   -0.02143564
     atom   27 type  2   force =     0.00000000    0.00000000    0.02143564
     atom   28 type  2   force =    -0.00000000   -0.02143575    0.00000000
     atom   29 type  2   force =     0.02143575    0.00000000    0.00000000
     atom   30 type  2   force =    -0.02143575   -0.00000000    0.00000000
     atom   31 type  2   force =     0.00000000    0.02143575    0.00000000
     atom   32 type  2   force =     0.00000000    0.00000000   -0.02143575
     atom   33 type  2   force =     0.00000000   -0.00000000    0.02143575
     atom   34 type  2   force =    -0.00000000   -0.02143564   -0.00000000
     atom   35 type  2   force =     0.02143575   -0.00000000    0.00000000
     atom   36 type  2   force =    -0.02143575    0.00000000    0.00000000
     The ionic contribution  to forces
     atom    1 type  3   force =     0.00000000    0.00000000    0.00000000
     atom    2 type  3   force =     0.00000000    0.00000000   -0.00000000
     atom    3 type  3   force =     0.00000000   -0.00000000    0.00000000
     atom    4 type  3   force =     0.00000000   -0.00000000   -0.00000000
     atom    5 type  3   force =    -0.00000000    0.00000000    0.00000000
     atom    6 type  3   force =    -0.00000000    0.00000000   -0.00000000
     atom    7 type  3   force =    -0.00000000   -0.00000000    0.00000000
     atom    8 type  3   force =    -0.00000000   -0.00000000   -0.00000000
     atom    9 type  1   force =    -0.00000000   -0.00000000   -0.00000000
     atom   10 type  1   force =    -0.00000000    0.00000000    0.00000000
     atom   11 type  1   force =     0.00000000   -0.00000000    0.00000000
     atom   12 type  1   force =     0.00000000    0.00000000   -0.00000000
     atom   13 type  2   force =    -0.00000000   -3.00592336   -0.00000000
     atom   14 type  2   force =    -0.00000000   -0.00000000    3.00592336
     atom   15 type  2   force =     0.00000000   -0.00000000   -3.00592336
     atom   16 type  2   force =    -0.00000000    3.00592336   -0.00000000
     atom   17 type  2   force =    -3.00592336   -0.00000000   -0.00000000
     atom   18 type  2   force =     3.00592336   -0.00000000   -0.00000000
     atom   19 type  2   force =    -0.00000000   -3.00592336    0.00000000
     atom   20 type  2   force =    -0.00000000   -0.00000000    3.00592336
     atom   21 type  2   force =     0.00000000    0.00000000   -3.00592336
     atom   22 type  2   force =     0.00000000    3.00592336   -0.00000000
     atom   23 type  2   force =    -3.00592336    0.00000000    0.00000000
     atom   24 type  2   force =     3.00592336   -0.00000000   -0.00000000
     atom   25 type  2   force =     0.00000000   -3.00592336    0.00000000
     atom   26 type  2   force =    -0.00000000   -0.00000000    3.00592336
     atom   27 type  2   force =    -0.00000000   -0.00000000   -3.00592336
     atom   28 type  2   force =     0.00000000    3.00592336   -0.00000000
     atom   29 type  2   force =    -3.00592336   -0.00000000    0.00000000
     atom   30 type  2   force =     3.00592336   -0.00000000   -0.00000000
     atom   31 type  2   force =    -0.00000000   -3.00592336   -0.00000000
     atom   32 type  2   force =    -0.00000000   -0.00000000    3.00592336
     atom   33 type  2   force =    -0.00000000    0.00000000   -3.00592336
     atom   34 type  2   force =     0.00000000    3.00592336   -0.00000000
     atom   35 type  2   force =    -3.00592336    0.00000000   -0.00000000
     atom   36 type  2   force =     3.00592336   -0.00000000   -0.00000000
     The local contribution  to forces
     atom    1 type  3   force =    -0.00000038   -0.00000038    0.00000038
     atom    2 type  3   force =    -0.00000038   -0.00000038   -0.00000038
     atom    3 type  3   force =    -0.00000038    0.00000038   -0.00000038
     atom    4 type  3   force =    -0.00000038    0.00000038    0.00000038
     atom    5 type  3   force =     0.00000038   -0.00000038   -0.00000038
     atom    6 type  3   force =     0.00000038   -0.00000038    0.00000038
     atom    7 type  3   force =     0.00000038    0.00000038    0.00000038
     atom    8 type  3   force =     0.00000038    0.00000038   -0.00000038
     atom    9 type  1   force =     0.00000000    0.00000000    0.00000000
     atom   10 type  1   force =     0.00000000    0.00000000    0.00000000
     atom   11 type  1   force =     0.00000000    0.00000000    0.00000000
     atom   12 type  1   force =     0.00000000    0.00000000    0.00000000
     atom   13 type  2   force =    -0.00000000    2.98007811    0.00000000
     atom   14 type  2   force =     0.00000000    0.00000000   -2.98007669
     atom   15 type  2   force =    -0.00000000   -0.00000000    2.98007669
     atom   16 type  2   force =    -0.00000000   -2.98007669   -0.00000000
     atom   17 type  2   force =     2.98007811    0.00000000    0.00000000
     atom   18 type  2   force =    -2.98007811   -0.00000000    0.00000000
     atom   19 type  2   force =    -0.00000000    2.98007669    0.00000000
     atom   20 type  2   force =     0.00000000    0.00000000   -2.98007693
     atom   21 type  2   force =    -0.00000000   -0.00000000    2.98007693
     atom   22 type  2   force =     0.00000000   -2.98007693    0.00000000
     atom   23 type  2   force =     2.98007693    0.00000000   -0.00000000
     atom   24 type  2   force =    -2.98007693   -0.00000000    0.00000000
     atom   25 type  2   force =    -0.00000000    2.98007693   -0.00000000
     atom   26 type  2   force =     0.00000000    0.00000000   -2.98007811
     atom   27 type  2   force =    -0.00000000   -0.00000000    2.98007811
     atom   28 type  2   force =     0.00000000   -2.98007669    0.00000000
     atom   29 type  2   force =     2.98007669   -0.00000000   -0.00000000
     atom   30 type  2   force =    -2.98007669    0.00000000    0.00000000
     atom   31 type  2   force =     0.00000000    2.98007669   -0.00000000
     atom   32 type  2   force =     0.00000000    0.00000000   -2.98007669
     atom   33 type  2   force =    -0.00000000   -0.00000000    2.98007669
     atom   34 type  2   force =     0.00000000   -2.98007811    0.00000000
     atom   35 type  2   force =     2.98007669   -0.00000000    0.00000000
     atom   36 type  2   force =    -2.98007669    0.00000000    0.00000000
     The core correction contribution to forces
     atom    1 type  3   force =    -0.00000004   -0.00000004    0.00000004
     atom    2 type  3   force =    -0.00000004   -0.00000004   -0.00000004
     atom    3 type  3   force =    -0.00000004    0.00000004   -0.00000004
     atom    4 type  3   force =    -0.00000004    0.00000004    0.00000004
     atom    5 type  3   force =     0.00000004   -0.00000004   -0.00000004
     atom    6 type  3   force =     0.00000004   -0.00000004    0.00000004
     atom    7 type  3   force =     0.00000004    0.00000004    0.00000004
     atom    8 type  3   force =     0.00000004    0.00000004   -0.00000004
     atom    9 type  1   force =     0.00000000   -0.00000000    0.00000000
     atom   10 type  1   force =     0.00000000   -0.00000000   -0.00000000
     atom   11 type  1   force =    -0.00000000    0.00000000   -0.00000000
     atom   12 type  1   force =    -0.00000000   -0.00000000   -0.00000000
     atom   13 type  2   force =     0.00000000    0.00000000    0.00000000
     atom   14 type  2   force =     0.00000000    0.00000000    0.00000000
     atom   15 type  2   force =     0.00000000    0.00000000    0.00000000
     atom   16 type  2   force =     0.00000000    0.00000000    0.00000000
     atom   17 type  2   force =     0.00000000    0.00000000    0.00000000
     atom   18 type  2   force =     0.00000000    0.00000000    0.00000000
     atom   19 type  2   force =     0.00000000    0.00000000    0.00000000
     atom   20 type  2   force =     0.00000000    0.00000000    0.00000000
     atom   21 type  2   force =     0.00000000    0.00000000    0.00000000
     atom   22 type  2   force =     0.00000000    0.00000000    0.00000000
     atom   23 type  2   force =     0.00000000    0.00000000    0.00000000
     atom   24 type  2   force =     0.00000000    0.00000000    0.00000000
     atom   25 type  2   force =     0.00000000    0.00000000    0.00000000
     atom   26 type  2   force =     0.00000000    0.00000000    0.00000000
     atom   27 type  2   force =     0.00000000    0.00000000    0.00000000
     atom   28 type  2   force =     0.00000000    0.00000000    0.00000000
     atom   29 type  2   force =     0.00000000    0.00000000    0.00000000
     atom   30 type  2   force =     0.00000000    0.00000000    0.00000000
     atom   31 type  2   force =     0.00000000    0.00000000    0.00000000
     atom   32 type  2   force =     0.00000000    0.00000000    0.00000000
     atom   33 type  2   force =     0.00000000    0.00000000    0.00000000
     atom   34 type  2   force =     0.00000000    0.00000000    0.00000000
     atom   35 type  2   force =     0.00000000    0.00000000    0.00000000
     atom   36 type  2   force =     0.00000000    0.00000000    0.00000000
     The Hubbard contrib.    to forces
     atom    1 type  3   force =     0.00000000    0.00000000    0.00000000
     atom    2 type  3   force =     0.00000000    0.00000000    0.00000000
     atom    3 type  3   force =     0.00000000    0.00000000    0.00000000
     atom    4 type  3   force =     0.00000000    0.00000000    0.00000000
     atom    5 type  3   force =     0.00000000    0.00000000    0.00000000
     atom    6 type  3   force =     0.00000000    0.00000000    0.00000000
     atom    7 type  3   force =     0.00000000    0.00000000    0.00000000
     atom    8 type  3   force =     0.00000000    0.00000000    0.00000000
     atom    9 type  1   force =     0.00000000    0.00000000    0.00000000
     atom   10 type  1   force =     0.00000000    0.00000000    0.00000000
     atom   11 type  1   force =     0.00000000    0.00000000    0.00000000
     atom   12 type  1   force =     0.00000000    0.00000000    0.00000000
     atom   13 type  2   force =     0.00000000    0.00000000    0.00000000
     atom   14 type  2   force =     0.00000000    0.00000000    0.00000000
     atom   15 type  2   force =     0.00000000    0.00000000    0.00000000
     atom   16 type  2   force =     0.00000000    0.00000000    0.00000000
     atom   17 type  2   force =     0.00000000    0.00000000    0.00000000
     atom   18 type  2   force =     0.00000000    0.00000000    0.00000000
     atom   19 type  2   force =     0.00000000    0.00000000    0.00000000
     atom   20 type  2   force =     0.00000000    0.00000000    0.00000000
     atom   21 type  2   force =     0.00000000    0.00000000    0.00000000
     atom   22 type  2   force =     0.00000000    0.00000000    0.00000000
     atom   23 type  2   force =     0.00000000    0.00000000    0.00000000
     atom   24 type  2   force =     0.00000000    0.00000000    0.00000000
     atom   25 type  2   force =     0.00000000    0.00000000    0.00000000
     atom   26 type  2   force =     0.00000000    0.00000000    0.00000000
     atom   27 type  2   force =     0.00000000    0.00000000    0.00000000
     atom   28 type  2   force =     0.00000000    0.00000000    0.00000000
     atom   29 type  2   force =     0.00000000    0.00000000    0.00000000
     atom   30 type  2   force =     0.00000000    0.00000000    0.00000000
     atom   31 type  2   force =     0.00000000    0.00000000    0.00000000
     atom   32 type  2   force =     0.00000000    0.00000000    0.00000000
     atom   33 type  2   force =     0.00000000    0.00000000    0.00000000
     atom   34 type  2   force =     0.00000000    0.00000000    0.00000000
     atom   35 type  2   force =     0.00000000    0.00000000    0.00000000
     atom   36 type  2   force =     0.00000000    0.00000000    0.00000000
     The SCF correction term to forces
     atom    1 type  3   force =     0.00000024    0.00000024   -0.00000024
     atom    2 type  3   force =     0.00000024    0.00000024    0.00000024
     atom    3 type  3   force =     0.00000024   -0.00000024    0.00000024
     atom    4 type  3   force =     0.00000024   -0.00000024   -0.00000024
     atom    5 type  3   force =    -0.00000024    0.00000024    0.00000024
     atom    6 type  3   force =    -0.00000024    0.00000024   -0.00000024
     atom    7 type  3   force =    -0.00000024   -0.00000024   -0.00000024
     atom    8 type  3   force =    -0.00000024   -0.00000024    0.00000024
     atom    9 type  1   force =    -0.00000000   -0.00000000   -0.00000000
     atom   10 type  1   force =    -0.00000000    0.00000000   -0.00000000
     atom   11 type  1   force =     0.00000000    0.00000000   -0.00000000
     atom   12 type  1   force =     0.00000000    0.00000000    0.00000000
     atom   13 type  2   force =    -0.00000000   -0.00000085   -0.00000000
     atom   14 type  2   force =     0.00000000   -0.00000000    0.00000010
     atom   15 type  2   force =     0.00000000   -0.00000000   -0.00000010
     atom   16 type  2   force =     0.00000000    0.00000010   -0.00000000
     atom   17 type  2   force =    -0.00000085    0.00000000   -0.00000000
     atom   18 type  2   force =     0.00000085    0.00000000   -0.00000000
     atom   19 type  2   force =     0.00000000   -0.00000010   -0.00000000
     atom   20 type  2   force =     0.00000000   -0.00000000    0.00000018
     atom   21 type  2   force =     0.00000000   -0.00000000   -0.00000018
     atom   22 type  2   force =    -0.00000000    0.00000018   -0.00000000
     atom   23 type  2   force =    -0.00000018   -0.00000000   -0.00000000
     atom   24 type  2   force =     0.00000018    0.00000000   -0.00000000
     atom   25 type  2   force =    -0.00000000   -0.00000018   -0.00000000
     atom   26 type  2   force =    -0.00000000    0.00000000    0.00000085
     atom   27 type  2   force =    -0.00000000   -0.00000000   -0.00000085
     atom   28 type  2   force =     0.00000000    0.00000010   -0.00000000
     atom   29 type  2   force =    -0.00000010    0.00000000   -0.00000000
     atom   30 type  2   force =     0.00000010    0.00000000   -0.00000000
     atom   31 type  2   force =     0.00000000   -0.00000010   -0.00000000
     atom   32 type  2   force =     0.00000000    0.00000000    0.00000010
     atom   33 type  2   force =    -0.00000000   -0.00000000   -0.00000010
     atom   34 type  2   force =    -0.00000000    0.00000085   -0.00000000
     atom   35 type  2   force =    -0.00000010   -0.00000000   -0.00000000
     atom   36 type  2   force =     0.00000010    0.00000000    0.00000000

     Total force =     0.021609     Total SCF correction =     0.000002


     Computing stress (Cartesian axis) and pressure

          total   stress  (Ry/bohr**3)                   (kbar)     P=        0.06
   0.00000040   0.00000000   0.00000000            0.06        0.00        0.00
   0.00000000   0.00000040   0.00000000            0.00        0.06        0.00
   0.00000000   0.00000000   0.00000040            0.00        0.00        0.06

     kinetic stress (kbar)  17234.52      0.00      0.00
                                0.00  17234.52      0.00
                                0.00      0.00  17234.52

     local   stress (kbar)  -1925.35     -0.00     -0.00
                               -0.00  -1925.35     -0.00
                               -0.00     -0.00  -1925.35

     nonloc. stress (kbar) -11918.70      0.00      0.00
                                0.00 -11918.70      0.00
                                0.00      0.00 -11918.70

     hartree stress (kbar)  13890.59     -0.00      0.00
                               -0.00  13890.59      0.00
                                0.00      0.00  13890.59

     exc-cor stress (kbar)   -633.28     -0.00      0.00
                               -0.00   -633.28     -0.00
                                0.00     -0.00   -633.28

     corecor stress (kbar)  -3458.71      0.00     -0.00
                                0.00  -3458.71      0.00
                               -0.00      0.00  -3458.71

     ewald   stress (kbar) -13189.02      0.00      0.00
                                0.00 -13189.02      0.00
                                0.00      0.00 -13189.02

     hubbard stress (kbar)      0.00      0.00      0.00
                                0.00      0.00      0.00
                                0.00      0.00      0.00

     DFT-D   stress (kbar)      0.00      0.00      0.00
                                0.00      0.00      0.00
                                0.00      0.00      0.00

     XDM     stress (kbar)      0.00      0.00      0.00
                                0.00      0.00      0.00
                                0.00      0.00      0.00

     dft-nl  stress (kbar)      0.00      0.00      0.00
                                0.00      0.00      0.00
                                0.00      0.00      0.00

     TS-vdW  stress (kbar)      0.00      0.00      0.00
                                0.00      0.00      0.00
                                0.00      0.00      0.00

     MDB     stress (kbar)      0.00      0.00      0.00
                                0.00      0.00      0.00
                                0.00      0.00      0.00

     3D-RISM stress (kbar)      0.00      0.00      0.00
                                0.00      0.00      0.00
                                0.00      0.00      0.00


     Writing all to output data dir ./out/fe-kp-5.save/

     init_run     :      1.49s CPU      1.69s WALL (       1 calls)
     electrons    :     16.67s CPU     20.47s WALL (       1 calls)
     forces       :      0.58s CPU      0.70s WALL (       1 calls)
     stress       :      2.91s CPU      3.03s WALL (       1 calls)

     Called by init_run:
     wfcinit      :      0.47s CPU      0.52s WALL (       1 calls)
     wfcinit:atom :      0.01s CPU      0.01s WALL (       5 calls)
     wfcinit:wfcr :      0.43s CPU      0.48s WALL (       5 calls)
     potinit      :      0.36s CPU      0.41s WALL (       1 calls)
     hinit0       :      0.22s CPU      0.25s WALL (       1 calls)

     Called by electrons:
     c_bands      :     11.47s CPU     13.21s WALL (      13 calls)
     sum_band     :      2.88s CPU      3.73s WALL (      13 calls)
     v_of_rho     :      0.64s CPU      0.77s WALL (      14 calls)
     v_h          :      0.07s CPU      0.08s WALL (      14 calls)
     v_xc         :      0.64s CPU      0.79s WALL (      16 calls)
     newd         :      1.18s CPU      1.64s WALL (      14 calls)
     PAW_pot      :      0.47s CPU      1.02s WALL (      14 calls)
     mix_rho      :      0.09s CPU      0.11s WALL (      13 calls)

     Called by c_bands:
     init_us_2    :      0.19s CPU      0.21s WALL (     145 calls)
     init_us_2:cp :      0.19s CPU      0.21s WALL (     145 calls)
     cegterg      :     10.93s CPU     12.17s WALL (      65 calls)

     Called by sum_band:
     sum_band:wei :      0.00s CPU      0.00s WALL (      13 calls)
     sum_band:loo :      1.40s CPU      1.66s WALL (      13 calls)
     sum_band:buf :      0.03s CPU      0.03s WALL (      65 calls)
     sum_band:ini :      0.07s CPU      0.08s WALL (      65 calls)
     sum_band:cal :      0.24s CPU      0.28s WALL (      65 calls)
     sum_band:bec :      0.01s CPU      0.01s WALL (      65 calls)
     addusdens    :      1.38s CPU      1.91s WALL (      13 calls)
                                        0.00s GPU  (      13 calls)
     addusd:skk   :      0.07s CPU      0.07s WALL (      39 calls)
                                        0.00s GPU  (      39 calls)

     Called by *egterg:
     cdiaghg      :      1.50s CPU      1.59s WALL (     338 calls)
     cegterg:over :      0.56s CPU      0.61s WALL (     273 calls)
     cegterg:upda :      0.34s CPU      0.35s WALL (     273 calls)
     cegterg:last :      0.65s CPU      0.65s WALL (     144 calls)
     h_psi        :      7.30s CPU      8.38s WALL (     343 calls)
     s_psi        :      0.60s CPU      0.61s WALL (     343 calls)
     g_psi        :      0.02s CPU      0.02s WALL (     273 calls)

     Called by h_psi:
     h_psi:calbec :      0.96s CPU      1.08s WALL (     343 calls)
     vloc_psi     :      5.63s CPU      6.57s WALL (     343 calls)
     add_vuspsi   :      0.64s CPU      0.67s WALL (     343 calls)

     General routines
     calbec       :      1.27s CPU      1.45s WALL (     433 calls)
     fft          :      0.49s CPU      0.66s WALL (     205 calls)
     ffts         :      0.16s CPU      0.17s WALL (      27 calls)
     fftw         :      5.42s CPU      6.35s WALL (   26898 calls)
     interpolate  :      0.19s CPU      0.20s WALL (      14 calls)

     Parallel routines

     PAW routines
     PAW_pot      :      0.47s CPU      1.02s WALL (      14 calls)
     PAW_symme    :      0.01s CPU      0.01s WALL (      27 calls)

     PWSCF        :     22.03s CPU     26.95s WALL


   This run was terminated on:  22:32: 2  13Jun2025            

=------------------------------------------------------------------------------=
   JOB DONE.
=------------------------------------------------------------------------------=
