
     Program PWSCF v.7.2 starts on 13Jun2025 at 22:35: 6 

     This program is part of the open-source Quantum ESPRESSO suite
     for quantum simulation of materials; please cite
         "P. Giannozzi et al., J. Phys.:Condens. Matter 21 395502 (2009);
         "P. Giannozzi et al., J. Phys.:Condens. Matter 29 465901 (2017);
         "P. Giannozzi et al., J. Chem. Phys. 152 154105 (2020);
          URL http://www.quantum-espresso.org", 
     in publications or presentations arising from this work. More details at
     http://www.quantum-espresso.org/quote

     Parallel version (MPI & OpenMP), running on      64 processor cores
     Number of MPI processes:                64
     Threads/MPI process:                     1

     MPI processes distributed on     1 nodes
     233454 MiB available memory on the printing compute node when the environment starts

     Reading input from fe_kp_9.in

     Current dimensions of program PWSCF are:
     Max number of different atomic species (ntypx) = 10
     Max number of k-points (npk) =  40000
     Max angular momentum in pseudopotentials (lmaxx) =  4
     file Fe.pbesol-spn-kjpaw_psl.0.2.1.UPF: wavefunction(s)  3D renormalized
     file Mg.pbesol-n-kjpaw_psl.0.3.0.UPF: wavefunction(s)  3S renormalized
     Found identity + (  0.0000  0.5000 -0.5000) symmetry
     This is a supercell, fractional translations are disabled
     Message from routine setup:
     using ibrav=0 with symmetry is DISCOURAGED, use correct ibrav instead

     K-points division:     npool     =       2
     R & G space division:  proc/nbgrp/npool/nimage =      32
     Subspace diagonalization in iterative solution of the eigenvalue problem:
     a serial algorithm will be used


     Parallelization info
     --------------------
     sticks:   dense  smooth     PW     G-vecs:    dense   smooth      PW
     Min         387     129     34                32439     6247     882
     Max         388     130     35                32443     6250     887
     Sum       12393    4149   1117              1038085   199949   28353

     Using Slab Decomposition



     bravais-lattice index     =            0
     lattice parameter (alat)  =      12.0093  a.u.
     unit-cell volume          =    1732.0312 (a.u.)^3
     number of atoms/cell      =           36
     number of atomic types    =            3
     number of electrons       =       104.00
     number of Kohn-Sham states=           62
     kinetic-energy cutoff     =      90.0000  Ry
     charge density cutoff     =    1080.0000  Ry
     scf convergence threshold =      7.2E-09
     mixing beta               =       0.4000
     number of iterations used =            8  plain     mixing
     Exchange-correlation= SLA  PW   PSX  PSC
                           (   1   4  10   8   0   0   0)

     celldm(1)=  12.009324  celldm(2)=   0.000000  celldm(3)=   0.000000
     celldm(4)=   0.000000  celldm(5)=   0.000000  celldm(6)=   0.000000

     crystal axes: (cart. coord. in units of alat)
               a(1) = (   1.000000   0.000000   0.000000 )  
               a(2) = (   0.000000   1.000000   0.000000 )  
               a(3) = (   0.000000   0.000000   1.000000 )  

     reciprocal axes: (cart. coord. in units 2 pi/alat)
               b(1) = (  1.000000  0.000000  0.000000 )  
               b(2) = (  0.000000  1.000000  0.000000 )  
               b(3) = (  0.000000  0.000000  1.000000 )  


     PseudoPot. # 1 for Fe read from file:
     ./pseudo/Fe.pbesol-spn-kjpaw_psl.0.2.1.UPF
     MD5 check sum: 4d7ec5aa2156491519a4322664fbbf52
     Pseudo is Projector augmented-wave + core cor, Zval = 16.0
     Generated using "atomic" code by A. Dal Corso  v.6.0 svn rev. 13079
     Shape of augmentation charge: PSQ
     Using radial grid of 1191 points,  6 beta functions with: 
                l(1) =   0
                l(2) =   0
                l(3) =   1
                l(4) =   1
                l(5) =   2
                l(6) =   2
     Q(r) pseudized with 0 coefficients 


     PseudoPot. # 2 for H  read from file:
     ./pseudo/H.pbesol-rrkjus_psl.1.0.0.UPF
     MD5 check sum: 0324ed591cc0147dc3d88cad0d33f665
     Pseudo is Ultrasoft, Zval =  1.0
     Generated using "atomic" code by A. Dal Corso  v.6.0 svn rev. 13079
     Using radial grid of  929 points,  2 beta functions with: 
                l(1) =   0
                l(2) =   0
     Q(r) pseudized with 0 coefficients 


     PseudoPot. # 3 for Mg read from file:
     ./pseudo/Mg.pbesol-n-kjpaw_psl.0.3.0.UPF
     MD5 check sum: a6c8d2ff726a5f7005dea00130d82930
     Pseudo is Projector augmented-wave + core cor, Zval =  2.0
     Generated using "atomic" code by A. Dal Corso  v.6.1 svn rev. 13369
     Shape of augmentation charge: PSQ
     Using radial grid of 1129 points,  4 beta functions with: 
                l(1) =   0
                l(2) =   0
                l(3) =   1
                l(4) =   1
     Q(r) pseudized with 0 coefficients 


     atomic species   valence    mass     pseudopotential
        Fe            16.00    55.84500     Fe( 1.00)
        H              1.00     1.00794     H ( 1.00)
        Mg             2.00    24.30500     Mg( 1.00)

     48 Sym. Ops., with inversion, found


                                    s                        frac. trans.

      isym =  1     identity                                     

 cryst.   s( 1) = (     1          0          0      )
                  (     0          1          0      )
                  (     0          0          1      )

 cart.    s( 1) = (  1.0000000  0.0000000  0.0000000 )
                  (  0.0000000  1.0000000  0.0000000 )
                  (  0.0000000  0.0000000  1.0000000 )


      isym =  2     180 deg rotation - cart. axis [0,0,1]        

 cryst.   s( 2) = (    -1          0          0      )
                  (     0         -1          0      )
                  (     0          0          1      )

 cart.    s( 2) = ( -1.0000000  0.0000000  0.0000000 )
                  (  0.0000000 -1.0000000  0.0000000 )
                  (  0.0000000  0.0000000  1.0000000 )


      isym =  3     180 deg rotation - cart. axis [0,1,0]        

 cryst.   s( 3) = (    -1          0          0      )
                  (     0          1          0      )
                  (     0          0         -1      )

 cart.    s( 3) = ( -1.0000000  0.0000000  0.0000000 )
                  (  0.0000000  1.0000000  0.0000000 )
                  (  0.0000000  0.0000000 -1.0000000 )


      isym =  4     180 deg rotation - cart. axis [1,0,0]        

 cryst.   s( 4) = (     1          0          0      )
                  (     0         -1          0      )
                  (     0          0         -1      )

 cart.    s( 4) = (  1.0000000  0.0000000  0.0000000 )
                  (  0.0000000 -1.0000000  0.0000000 )
                  (  0.0000000  0.0000000 -1.0000000 )


      isym =  5     180 deg rotation - cart. axis [1,1,0]        

 cryst.   s( 5) = (     0          1          0      )
                  (     1          0          0      )
                  (     0          0         -1      )

 cart.    s( 5) = (  0.0000000  1.0000000  0.0000000 )
                  (  1.0000000  0.0000000  0.0000000 )
                  (  0.0000000  0.0000000 -1.0000000 )


      isym =  6     180 deg rotation - cart. axis [1,-1,0]       

 cryst.   s( 6) = (     0         -1          0      )
                  (    -1          0          0      )
                  (     0          0         -1      )

 cart.    s( 6) = (  0.0000000 -1.0000000  0.0000000 )
                  ( -1.0000000  0.0000000  0.0000000 )
                  (  0.0000000  0.0000000 -1.0000000 )


      isym =  7      90 deg rotation - cart. axis [0,0,-1]       

 cryst.   s( 7) = (     0         -1          0      )
                  (     1          0          0      )
                  (     0          0          1      )

 cart.    s( 7) = (  0.0000000  1.0000000  0.0000000 )
                  ( -1.0000000  0.0000000  0.0000000 )
                  (  0.0000000  0.0000000  1.0000000 )


      isym =  8      90 deg rotation - cart. axis [0,0,1]        

 cryst.   s( 8) = (     0          1          0      )
                  (    -1          0          0      )
                  (     0          0          1      )

 cart.    s( 8) = (  0.0000000 -1.0000000  0.0000000 )
                  (  1.0000000  0.0000000  0.0000000 )
                  (  0.0000000  0.0000000  1.0000000 )


      isym =  9     180 deg rotation - cart. axis [1,0,1]        

 cryst.   s( 9) = (     0          0          1      )
                  (     0         -1          0      )
                  (     1          0          0      )

 cart.    s( 9) = (  0.0000000  0.0000000  1.0000000 )
                  (  0.0000000 -1.0000000  0.0000000 )
                  (  1.0000000  0.0000000  0.0000000 )


      isym = 10     180 deg rotation - cart. axis [-1,0,1]       

 cryst.   s(10) = (     0          0         -1      )
                  (     0         -1          0      )
                  (    -1          0          0      )

 cart.    s(10) = (  0.0000000  0.0000000 -1.0000000 )
                  (  0.0000000 -1.0000000  0.0000000 )
                  ( -1.0000000  0.0000000  0.0000000 )


      isym = 11      90 deg rotation - cart. axis [0,1,0]        

 cryst.   s(11) = (     0          0         -1      )
                  (     0          1          0      )
                  (     1          0          0      )

 cart.    s(11) = (  0.0000000  0.0000000  1.0000000 )
                  (  0.0000000  1.0000000  0.0000000 )
                  ( -1.0000000  0.0000000  0.0000000 )


      isym = 12      90 deg rotation - cart. axis [0,-1,0]       

 cryst.   s(12) = (     0          0          1      )
                  (     0          1          0      )
                  (    -1          0          0      )

 cart.    s(12) = (  0.0000000  0.0000000 -1.0000000 )
                  (  0.0000000  1.0000000  0.0000000 )
                  (  1.0000000  0.0000000  0.0000000 )


      isym = 13     180 deg rotation - cart. axis [0,1,1]        

 cryst.   s(13) = (    -1          0          0      )
                  (     0          0          1      )
                  (     0          1          0      )

 cart.    s(13) = ( -1.0000000  0.0000000  0.0000000 )
                  (  0.0000000  0.0000000  1.0000000 )
                  (  0.0000000  1.0000000  0.0000000 )


      isym = 14     180 deg rotation - cart. axis [0,1,-1]       

 cryst.   s(14) = (    -1          0          0      )
                  (     0          0         -1      )
                  (     0         -1          0      )

 cart.    s(14) = ( -1.0000000  0.0000000  0.0000000 )
                  (  0.0000000  0.0000000 -1.0000000 )
                  (  0.0000000 -1.0000000  0.0000000 )


      isym = 15      90 deg rotation - cart. axis [-1,0,0]       

 cryst.   s(15) = (     1          0          0      )
                  (     0          0         -1      )
                  (     0          1          0      )

 cart.    s(15) = (  1.0000000  0.0000000  0.0000000 )
                  (  0.0000000  0.0000000  1.0000000 )
                  (  0.0000000 -1.0000000  0.0000000 )


      isym = 16      90 deg rotation - cart. axis [1,0,0]        

 cryst.   s(16) = (     1          0          0      )
                  (     0          0          1      )
                  (     0         -1          0      )

 cart.    s(16) = (  1.0000000  0.0000000  0.0000000 )
                  (  0.0000000  0.0000000 -1.0000000 )
                  (  0.0000000  1.0000000  0.0000000 )


      isym = 17     120 deg rotation - cart. axis [-1,-1,-1]     

 cryst.   s(17) = (     0          0          1      )
                  (     1          0          0      )
                  (     0          1          0      )

 cart.    s(17) = (  0.0000000  1.0000000  0.0000000 )
                  (  0.0000000  0.0000000  1.0000000 )
                  (  1.0000000  0.0000000  0.0000000 )


      isym = 18     120 deg rotation - cart. axis [-1,1,1]       

 cryst.   s(18) = (     0          0         -1      )
                  (    -1          0          0      )
                  (     0          1          0      )

 cart.    s(18) = (  0.0000000 -1.0000000  0.0000000 )
                  (  0.0000000  0.0000000  1.0000000 )
                  ( -1.0000000  0.0000000  0.0000000 )


      isym = 19     120 deg rotation - cart. axis [1,1,-1]       

 cryst.   s(19) = (     0          0         -1      )
                  (     1          0          0      )
                  (     0         -1          0      )

 cart.    s(19) = (  0.0000000  1.0000000  0.0000000 )
                  (  0.0000000  0.0000000 -1.0000000 )
                  ( -1.0000000  0.0000000  0.0000000 )


      isym = 20     120 deg rotation - cart. axis [1,-1,1]       

 cryst.   s(20) = (     0          0          1      )
                  (    -1          0          0      )
                  (     0         -1          0      )

 cart.    s(20) = (  0.0000000 -1.0000000  0.0000000 )
                  (  0.0000000  0.0000000 -1.0000000 )
                  (  1.0000000  0.0000000  0.0000000 )


      isym = 21     120 deg rotation - cart. axis [1,1,1]        

 cryst.   s(21) = (     0          1          0      )
                  (     0          0          1      )
                  (     1          0          0      )

 cart.    s(21) = (  0.0000000  0.0000000  1.0000000 )
                  (  1.0000000  0.0000000  0.0000000 )
                  (  0.0000000  1.0000000  0.0000000 )


      isym = 22     120 deg rotation - cart. axis [-1,1,-1]      

 cryst.   s(22) = (     0         -1          0      )
                  (     0          0         -1      )
                  (     1          0          0      )

 cart.    s(22) = (  0.0000000  0.0000000  1.0000000 )
                  ( -1.0000000  0.0000000  0.0000000 )
                  (  0.0000000 -1.0000000  0.0000000 )


      isym = 23     120 deg rotation - cart. axis [1,-1,-1]      

 cryst.   s(23) = (     0         -1          0      )
                  (     0          0          1      )
                  (    -1          0          0      )

 cart.    s(23) = (  0.0000000  0.0000000 -1.0000000 )
                  ( -1.0000000  0.0000000  0.0000000 )
                  (  0.0000000  1.0000000  0.0000000 )


      isym = 24     120 deg rotation - cart. axis [-1,-1,1]      

 cryst.   s(24) = (     0          1          0      )
                  (     0          0         -1      )
                  (    -1          0          0      )

 cart.    s(24) = (  0.0000000  0.0000000 -1.0000000 )
                  (  1.0000000  0.0000000  0.0000000 )
                  (  0.0000000 -1.0000000  0.0000000 )


      isym = 25     inversion                                    

 cryst.   s(25) = (    -1          0          0      )
                  (     0         -1          0      )
                  (     0          0         -1      )

 cart.    s(25) = ( -1.0000000  0.0000000  0.0000000 )
                  (  0.0000000 -1.0000000  0.0000000 )
                  (  0.0000000  0.0000000 -1.0000000 )


      isym = 26     inv. 180 deg rotation - cart. axis [0,0,1]   

 cryst.   s(26) = (     1          0          0      )
                  (     0          1          0      )
                  (     0          0         -1      )

 cart.    s(26) = (  1.0000000  0.0000000  0.0000000 )
                  (  0.0000000  1.0000000  0.0000000 )
                  (  0.0000000  0.0000000 -1.0000000 )


      isym = 27     inv. 180 deg rotation - cart. axis [0,1,0]   

 cryst.   s(27) = (     1          0          0      )
                  (     0         -1          0      )
                  (     0          0          1      )

 cart.    s(27) = (  1.0000000  0.0000000  0.0000000 )
                  (  0.0000000 -1.0000000  0.0000000 )
                  (  0.0000000  0.0000000  1.0000000 )


      isym = 28     inv. 180 deg rotation - cart. axis [1,0,0]   

 cryst.   s(28) = (    -1          0          0      )
                  (     0          1          0      )
                  (     0          0          1      )

 cart.    s(28) = ( -1.0000000  0.0000000  0.0000000 )
                  (  0.0000000  1.0000000  0.0000000 )
                  (  0.0000000  0.0000000  1.0000000 )


      isym = 29     inv. 180 deg rotation - cart. axis [1,1,0]   

 cryst.   s(29) = (     0         -1          0      )
                  (    -1          0          0      )
                  (     0          0          1      )

 cart.    s(29) = (  0.0000000 -1.0000000  0.0000000 )
                  ( -1.0000000  0.0000000  0.0000000 )
                  (  0.0000000  0.0000000  1.0000000 )


      isym = 30     inv. 180 deg rotation - cart. axis [1,-1,0]  

 cryst.   s(30) = (     0          1          0      )
                  (     1          0          0      )
                  (     0          0          1      )

 cart.    s(30) = (  0.0000000  1.0000000  0.0000000 )
                  (  1.0000000  0.0000000  0.0000000 )
                  (  0.0000000  0.0000000  1.0000000 )


      isym = 31     inv.  90 deg rotation - cart. axis [0,0,-1]  

 cryst.   s(31) = (     0          1          0      )
                  (    -1          0          0      )
                  (     0          0         -1      )

 cart.    s(31) = (  0.0000000 -1.0000000  0.0000000 )
                  (  1.0000000  0.0000000  0.0000000 )
                  (  0.0000000  0.0000000 -1.0000000 )


      isym = 32     inv.  90 deg rotation - cart. axis [0,0,1]   

 cryst.   s(32) = (     0         -1          0      )
                  (     1          0          0      )
                  (     0          0         -1      )

 cart.    s(32) = (  0.0000000  1.0000000  0.0000000 )
                  ( -1.0000000  0.0000000  0.0000000 )
                  (  0.0000000  0.0000000 -1.0000000 )


      isym = 33     inv. 180 deg rotation - cart. axis [1,0,1]   

 cryst.   s(33) = (     0          0         -1      )
                  (     0          1          0      )
                  (    -1          0          0      )

 cart.    s(33) = (  0.0000000  0.0000000 -1.0000000 )
                  (  0.0000000  1.0000000  0.0000000 )
                  ( -1.0000000  0.0000000  0.0000000 )


      isym = 34     inv. 180 deg rotation - cart. axis [-1,0,1]  

 cryst.   s(34) = (     0          0          1      )
                  (     0          1          0      )
                  (     1          0          0      )

 cart.    s(34) = (  0.0000000  0.0000000  1.0000000 )
                  (  0.0000000  1.0000000  0.0000000 )
                  (  1.0000000  0.0000000  0.0000000 )


      isym = 35     inv.  90 deg rotation - cart. axis [0,1,0]   

 cryst.   s(35) = (     0          0          1      )
                  (     0         -1          0      )
                  (    -1          0          0      )

 cart.    s(35) = (  0.0000000  0.0000000 -1.0000000 )
                  (  0.0000000 -1.0000000  0.0000000 )
                  (  1.0000000  0.0000000  0.0000000 )


      isym = 36     inv.  90 deg rotation - cart. axis [0,-1,0]  

 cryst.   s(36) = (     0          0         -1      )
                  (     0         -1          0      )
                  (     1          0          0      )

 cart.    s(36) = (  0.0000000  0.0000000  1.0000000 )
                  (  0.0000000 -1.0000000  0.0000000 )
                  ( -1.0000000  0.0000000  0.0000000 )


      isym = 37     inv. 180 deg rotation - cart. axis [0,1,1]   

 cryst.   s(37) = (     1          0          0      )
                  (     0          0         -1      )
                  (     0         -1          0      )

 cart.    s(37) = (  1.0000000  0.0000000  0.0000000 )
                  (  0.0000000  0.0000000 -1.0000000 )
                  (  0.0000000 -1.0000000  0.0000000 )


      isym = 38     inv. 180 deg rotation - cart. axis [0,1,-1]  

 cryst.   s(38) = (     1          0          0      )
                  (     0          0          1      )
                  (     0          1          0      )

 cart.    s(38) = (  1.0000000  0.0000000  0.0000000 )
                  (  0.0000000  0.0000000  1.0000000 )
                  (  0.0000000  1.0000000  0.0000000 )


      isym = 39     inv.  90 deg rotation - cart. axis [-1,0,0]  

 cryst.   s(39) = (    -1          0          0      )
                  (     0          0          1      )
                  (     0         -1          0      )

 cart.    s(39) = ( -1.0000000  0.0000000  0.0000000 )
                  (  0.0000000  0.0000000 -1.0000000 )
                  (  0.0000000  1.0000000  0.0000000 )


      isym = 40     inv.  90 deg rotation - cart. axis [1,0,0]   

 cryst.   s(40) = (    -1          0          0      )
                  (     0          0         -1      )
                  (     0          1          0      )

 cart.    s(40) = ( -1.0000000  0.0000000  0.0000000 )
                  (  0.0000000  0.0000000  1.0000000 )
                  (  0.0000000 -1.0000000  0.0000000 )


      isym = 41     inv. 120 deg rotation - cart. axis [-1,-1,-1]

 cryst.   s(41) = (     0          0         -1      )
                  (    -1          0          0      )
                  (     0         -1          0      )

 cart.    s(41) = (  0.0000000 -1.0000000  0.0000000 )
                  (  0.0000000  0.0000000 -1.0000000 )
                  ( -1.0000000  0.0000000  0.0000000 )


      isym = 42     inv. 120 deg rotation - cart. axis [-1,1,1]  

 cryst.   s(42) = (     0          0          1      )
                  (     1          0          0      )
                  (     0         -1          0      )

 cart.    s(42) = (  0.0000000  1.0000000  0.0000000 )
                  (  0.0000000  0.0000000 -1.0000000 )
                  (  1.0000000  0.0000000  0.0000000 )


      isym = 43     inv. 120 deg rotation - cart. axis [1,1,-1]  

 cryst.   s(43) = (     0          0          1      )
                  (    -1          0          0      )
                  (     0          1          0      )

 cart.    s(43) = (  0.0000000 -1.0000000  0.0000000 )
                  (  0.0000000  0.0000000  1.0000000 )
                  (  1.0000000  0.0000000  0.0000000 )


      isym = 44     inv. 120 deg rotation - cart. axis [1,-1,1]  

 cryst.   s(44) = (     0          0         -1      )
                  (     1          0          0      )
                  (     0          1          0      )

 cart.    s(44) = (  0.0000000  1.0000000  0.0000000 )
                  (  0.0000000  0.0000000  1.0000000 )
                  ( -1.0000000  0.0000000  0.0000000 )


      isym = 45     inv. 120 deg rotation - cart. axis [1,1,1]   

 cryst.   s(45) = (     0         -1          0      )
                  (     0          0         -1      )
                  (    -1          0          0      )

 cart.    s(45) = (  0.0000000  0.0000000 -1.0000000 )
                  ( -1.0000000  0.0000000  0.0000000 )
                  (  0.0000000 -1.0000000  0.0000000 )


      isym = 46     inv. 120 deg rotation - cart. axis [-1,1,-1] 

 cryst.   s(46) = (     0          1          0      )
                  (     0          0          1      )
                  (    -1          0          0      )

 cart.    s(46) = (  0.0000000  0.0000000 -1.0000000 )
                  (  1.0000000  0.0000000  0.0000000 )
                  (  0.0000000  1.0000000  0.0000000 )


      isym = 47     inv. 120 deg rotation - cart. axis [1,-1,-1] 

 cryst.   s(47) = (     0          1          0      )
                  (     0          0         -1      )
                  (     1          0          0      )

 cart.    s(47) = (  0.0000000  0.0000000  1.0000000 )
                  (  1.0000000  0.0000000  0.0000000 )
                  (  0.0000000 -1.0000000  0.0000000 )


      isym = 48     inv. 120 deg rotation - cart. axis [-1,-1,1] 

 cryst.   s(48) = (     0         -1          0      )
                  (     0          0          1      )
                  (     1          0          0      )

 cart.    s(48) = (  0.0000000  0.0000000  1.0000000 )
                  ( -1.0000000  0.0000000  0.0000000 )
                  (  0.0000000  1.0000000  0.0000000 )


   Cartesian axes

     site n.     atom                  positions (alat units)
         1           Mg  tau(   1) = (   0.7500000   0.7500000   0.2500000  )
         2           Mg  tau(   2) = (   0.7500000   0.7500000   0.7500000  )
         3           Mg  tau(   3) = (   0.7500000   0.2500000   0.7500000  )
         4           Mg  tau(   4) = (   0.7500000   0.2500000   0.2500000  )
         5           Mg  tau(   5) = (   0.2500000   0.7500000   0.7500000  )
         6           Mg  tau(   6) = (   0.2500000   0.7500000   0.2500000  )
         7           Mg  tau(   7) = (   0.2500000   0.2500000   0.2500000  )
         8           Mg  tau(   8) = (   0.2500000   0.2500000   0.7500000  )
         9           Fe  tau(   9) = (   0.0000000   0.0000000   0.0000000  )
        10           Fe  tau(  10) = (   0.0000000   0.5000000   0.5000000  )
        11           Fe  tau(  11) = (   0.5000000   0.0000000   0.5000000  )
        12           Fe  tau(  12) = (   0.5000000   0.5000000   0.0000000  )
        13           H   tau(  13) = (   0.0000000   0.7570260   0.0000000  )
        14           H   tau(  14) = (   0.5000000   0.0000000   0.7429740  )
        15           H   tau(  15) = (   0.5000000   0.0000000   0.2570260  )
        16           H   tau(  16) = (   0.5000000   0.7429740   0.0000000  )
        17           H   tau(  17) = (   0.7570260   0.0000000   0.0000000  )
        18           H   tau(  18) = (   0.2429740   0.0000000   0.0000000  )
        19           H   tau(  19) = (   0.0000000   0.2570260   0.5000000  )
        20           H   tau(  20) = (   0.5000000   0.5000000   0.2429740  )
        21           H   tau(  21) = (   0.5000000   0.5000000   0.7570260  )
        22           H   tau(  22) = (   0.5000000   0.2429740   0.5000000  )
        23           H   tau(  23) = (   0.7570260   0.5000000   0.5000000  )
        24           H   tau(  24) = (   0.2429740   0.5000000   0.5000000  )
        25           H   tau(  25) = (   0.5000000   0.7570260   0.5000000  )
        26           H   tau(  26) = (   0.0000000   0.0000000   0.2429740  )
        27           H   tau(  27) = (   0.0000000   0.0000000   0.7570260  )
        28           H   tau(  28) = (   0.0000000   0.7429740   0.5000000  )
        29           H   tau(  29) = (   0.2570260   0.0000000   0.5000000  )
        30           H   tau(  30) = (   0.7429740   0.0000000   0.5000000  )
        31           H   tau(  31) = (   0.5000000   0.2570260   0.0000000  )
        32           H   tau(  32) = (   0.0000000   0.5000000   0.7429740  )
        33           H   tau(  33) = (   0.0000000   0.5000000   0.2570260  )
        34           H   tau(  34) = (   0.0000000   0.2429740   0.0000000  )
        35           H   tau(  35) = (   0.2570260   0.5000000   0.0000000  )
        36           H   tau(  36) = (   0.7429740   0.5000000   0.0000000  )

   Crystallographic axes

     site n.     atom                  positions (cryst. coord.)
         1           Mg  tau(   1) = (  0.7500000  0.7500000  0.2500000  )
         2           Mg  tau(   2) = (  0.7500000  0.7500000  0.7500000  )
         3           Mg  tau(   3) = (  0.7500000  0.2500000  0.7500000  )
         4           Mg  tau(   4) = (  0.7500000  0.2500000  0.2500000  )
         5           Mg  tau(   5) = (  0.2500000  0.7500000  0.7500000  )
         6           Mg  tau(   6) = (  0.2500000  0.7500000  0.2500000  )
         7           Mg  tau(   7) = (  0.2500000  0.2500000  0.2500000  )
         8           Mg  tau(   8) = (  0.2500000  0.2500000  0.7500000  )
         9           Fe  tau(   9) = (  0.0000000  0.0000000  0.0000000  )
        10           Fe  tau(  10) = (  0.0000000  0.5000000  0.5000000  )
        11           Fe  tau(  11) = (  0.5000000  0.0000000  0.5000000  )
        12           Fe  tau(  12) = (  0.5000000  0.5000000  0.0000000  )
        13           H   tau(  13) = (  0.0000000  0.7570260  0.0000000  )
        14           H   tau(  14) = (  0.5000000  0.0000000  0.7429740  )
        15           H   tau(  15) = (  0.5000000  0.0000000  0.2570260  )
        16           H   tau(  16) = (  0.5000000  0.7429740  0.0000000  )
        17           H   tau(  17) = (  0.7570260  0.0000000  0.0000000  )
        18           H   tau(  18) = (  0.2429740  0.0000000  0.0000000  )
        19           H   tau(  19) = (  0.0000000  0.2570260  0.5000000  )
        20           H   tau(  20) = (  0.5000000  0.5000000  0.2429740  )
        21           H   tau(  21) = (  0.5000000  0.5000000  0.7570260  )
        22           H   tau(  22) = (  0.5000000  0.2429740  0.5000000  )
        23           H   tau(  23) = (  0.7570260  0.5000000  0.5000000  )
        24           H   tau(  24) = (  0.2429740  0.5000000  0.5000000  )
        25           H   tau(  25) = (  0.5000000  0.7570260  0.5000000  )
        26           H   tau(  26) = (  0.0000000  0.0000000  0.2429740  )
        27           H   tau(  27) = (  0.0000000  0.0000000  0.7570260  )
        28           H   tau(  28) = (  0.0000000  0.7429740  0.5000000  )
        29           H   tau(  29) = (  0.2570260  0.0000000  0.5000000  )
        30           H   tau(  30) = (  0.7429740  0.0000000  0.5000000  )
        31           H   tau(  31) = (  0.5000000  0.2570260  0.0000000  )
        32           H   tau(  32) = (  0.0000000  0.5000000  0.7429740  )
        33           H   tau(  33) = (  0.0000000  0.5000000  0.2570260  )
        34           H   tau(  34) = (  0.0000000  0.2429740  0.0000000  )
        35           H   tau(  35) = (  0.2570260  0.5000000  0.0000000  )
        36           H   tau(  36) = (  0.7429740  0.5000000  0.0000000  )

     number of k points=    35  Gaussian smearing, width (Ry)=  0.0200
                       cart. coord. in units 2pi/alat
        k(    1) = (   0.0000000   0.0000000   0.0000000), wk =   0.0027435
        k(    2) = (   0.0000000   0.0000000   0.1111111), wk =   0.0164609
        k(    3) = (   0.0000000   0.0000000   0.2222222), wk =   0.0164609
        k(    4) = (   0.0000000   0.0000000   0.3333333), wk =   0.0164609
        k(    5) = (   0.0000000   0.0000000   0.4444444), wk =   0.0164609
        k(    6) = (   0.0000000   0.1111111   0.1111111), wk =   0.0329218
        k(    7) = (   0.0000000   0.1111111   0.2222222), wk =   0.0658436
        k(    8) = (   0.0000000   0.1111111   0.3333333), wk =   0.0658436
        k(    9) = (   0.0000000   0.1111111   0.4444444), wk =   0.0658436
        k(   10) = (   0.0000000   0.2222222   0.2222222), wk =   0.0329218
        k(   11) = (   0.0000000   0.2222222   0.3333333), wk =   0.0658436
        k(   12) = (   0.0000000   0.2222222   0.4444444), wk =   0.0658436
        k(   13) = (   0.0000000   0.3333333   0.3333333), wk =   0.0329218
        k(   14) = (   0.0000000   0.3333333   0.4444444), wk =   0.0658436
        k(   15) = (   0.0000000   0.4444444   0.4444444), wk =   0.0329218
        k(   16) = (   0.1111111   0.1111111   0.1111111), wk =   0.0219479
        k(   17) = (   0.1111111   0.1111111   0.2222222), wk =   0.0658436
        k(   18) = (   0.1111111   0.1111111   0.3333333), wk =   0.0658436
        k(   19) = (   0.1111111   0.1111111   0.4444444), wk =   0.0658436
        k(   20) = (   0.1111111   0.2222222   0.2222222), wk =   0.0658436
        k(   21) = (   0.1111111   0.2222222   0.3333333), wk =   0.1316872
        k(   22) = (   0.1111111   0.2222222   0.4444444), wk =   0.1316872
        k(   23) = (   0.1111111   0.3333333   0.3333333), wk =   0.0658436
        k(   24) = (   0.1111111   0.3333333   0.4444444), wk =   0.1316872
        k(   25) = (   0.1111111   0.4444444   0.4444444), wk =   0.0658436
        k(   26) = (   0.2222222   0.2222222   0.2222222), wk =   0.0219479
        k(   27) = (   0.2222222   0.2222222   0.3333333), wk =   0.0658436
        k(   28) = (   0.2222222   0.2222222   0.4444444), wk =   0.0658436
        k(   29) = (   0.2222222   0.3333333   0.3333333), wk =   0.0658436
        k(   30) = (   0.2222222   0.3333333   0.4444444), wk =   0.1316872
        k(   31) = (   0.2222222   0.4444444   0.4444444), wk =   0.0658436
        k(   32) = (   0.3333333   0.3333333   0.3333333), wk =   0.0219479
        k(   33) = (   0.3333333   0.3333333   0.4444444), wk =   0.0658436
        k(   34) = (   0.3333333   0.4444444   0.4444444), wk =   0.0658436
        k(   35) = (   0.4444444   0.4444444   0.4444444), wk =   0.0219479

                       cryst. coord.
        k(    1) = (   0.0000000   0.0000000   0.0000000), wk =   0.0027435
        k(    2) = (   0.0000000   0.0000000   0.1111111), wk =   0.0164609
        k(    3) = (   0.0000000   0.0000000   0.2222222), wk =   0.0164609
        k(    4) = (   0.0000000   0.0000000   0.3333333), wk =   0.0164609
        k(    5) = (   0.0000000   0.0000000   0.4444444), wk =   0.0164609
        k(    6) = (   0.0000000   0.1111111   0.1111111), wk =   0.0329218
        k(    7) = (   0.0000000   0.1111111   0.2222222), wk =   0.0658436
        k(    8) = (   0.0000000   0.1111111   0.3333333), wk =   0.0658436
        k(    9) = (   0.0000000   0.1111111   0.4444444), wk =   0.0658436
        k(   10) = (   0.0000000   0.2222222   0.2222222), wk =   0.0329218
        k(   11) = (   0.0000000   0.2222222   0.3333333), wk =   0.0658436
        k(   12) = (   0.0000000   0.2222222   0.4444444), wk =   0.0658436
        k(   13) = (   0.0000000   0.3333333   0.3333333), wk =   0.0329218
        k(   14) = (   0.0000000   0.3333333   0.4444444), wk =   0.0658436
        k(   15) = (   0.0000000   0.4444444   0.4444444), wk =   0.0329218
        k(   16) = (   0.1111111   0.1111111   0.1111111), wk =   0.0219479
        k(   17) = (   0.1111111   0.1111111   0.2222222), wk =   0.0658436
        k(   18) = (   0.1111111   0.1111111   0.3333333), wk =   0.0658436
        k(   19) = (   0.1111111   0.1111111   0.4444444), wk =   0.0658436
        k(   20) = (   0.1111111   0.2222222   0.2222222), wk =   0.0658436
        k(   21) = (   0.1111111   0.2222222   0.3333333), wk =   0.1316872
        k(   22) = (   0.1111111   0.2222222   0.4444444), wk =   0.1316872
        k(   23) = (   0.1111111   0.3333333   0.3333333), wk =   0.0658436
        k(   24) = (   0.1111111   0.3333333   0.4444444), wk =   0.1316872
        k(   25) = (   0.1111111   0.4444444   0.4444444), wk =   0.0658436
        k(   26) = (   0.2222222   0.2222222   0.2222222), wk =   0.0219479
        k(   27) = (   0.2222222   0.2222222   0.3333333), wk =   0.0658436
        k(   28) = (   0.2222222   0.2222222   0.4444444), wk =   0.0658436
        k(   29) = (   0.2222222   0.3333333   0.3333333), wk =   0.0658436
        k(   30) = (   0.2222222   0.3333333   0.4444444), wk =   0.1316872
        k(   31) = (   0.2222222   0.4444444   0.4444444), wk =   0.0658436
        k(   32) = (   0.3333333   0.3333333   0.3333333), wk =   0.0219479
        k(   33) = (   0.3333333   0.3333333   0.4444444), wk =   0.0658436
        k(   34) = (   0.3333333   0.4444444   0.4444444), wk =   0.0658436
        k(   35) = (   0.4444444   0.4444444   0.4444444), wk =   0.0219479

     Dense  grid:  1038085 G-vectors     FFT dimensions: ( 125, 125, 125)

     Smooth grid:   199949 G-vectors     FFT dimensions: (  75,  75,  75)

     Dynamical RAM for                 wfc:       0.74 MB

     Dynamical RAM for     wfc (w. buffer):      14.02 MB

     Dynamical RAM for           str. fact:       1.49 MB

     Dynamical RAM for           local pot:       0.00 MB

     Dynamical RAM for          nlocal pot:       2.19 MB

     Dynamical RAM for                qrad:       7.91 MB

     Dynamical RAM for          rho,v,vnew:       2.92 MB

     Dynamical RAM for               rhoin:       0.97 MB

     Dynamical RAM for            rho*nmix:       7.92 MB

     Dynamical RAM for           G-vectors:       1.90 MB

     Dynamical RAM for          h,s,v(r/c):       0.70 MB

     Dynamical RAM for          <psi|beta>:       0.17 MB

     Dynamical RAM for                 psi:       1.48 MB

     Dynamical RAM for                hpsi:       1.48 MB

     Dynamical RAM for                spsi:       1.48 MB

     Dynamical RAM for      wfcinit/wfcrot:       2.84 MB

     Dynamical RAM for           addusdens:      52.23 MB

     Dynamical RAM for          addusforce:      63.70 MB

     Dynamical RAM for         addusstress:      49.87 MB

     Estimated static dynamical RAM per process >      35.76 MB

     Estimated max dynamical RAM per process >     107.38 MB

     Estimated total dynamical RAM >       6.46 GB

     Check: negative core charge=   -0.000001

     Initial potential from superposition of free atoms

     starting charge     103.9909, renormalised to     104.0000
     Starting wfcs are  108 randomized atomic wfcs
     Checking if some PAW data can be deallocated... 
       PAW data deallocated on   56 nodes for type:  1
       PAW data deallocated on   48 nodes for type:  3

     total cpu time spent up to now is        3.3 secs

     Self-consistent Calculation

     iteration #  1     ecut=    90.00 Ry     beta= 0.40
     Davidson diagonalization with overlap

---- Real-time Memory Report at c_bands before calling an iterative solver
           120 MiB given to the printing process from OS
             0 MiB allocation reported by mallinfo(arena+hblkhd)
        230221 MiB available memory on the node where the printing process lives
------------------
     ethr =  1.00E-02,  avg # of iterations =  2.0

     total cpu time spent up to now is        7.3 secs

     total energy              =   -1596.63349268 Ry
     estimated scf accuracy    <       4.50931843 Ry

     iteration #  2     ecut=    90.00 Ry     beta= 0.40
     Davidson diagonalization with overlap

---- Real-time Memory Report at c_bands before calling an iterative solver
           155 MiB given to the printing process from OS
             0 MiB allocation reported by mallinfo(arena+hblkhd)
        229302 MiB available memory on the node where the printing process lives
------------------
     ethr =  4.34E-03,  avg # of iterations =  4.6

     total cpu time spent up to now is       11.9 secs

     total energy              =   -1596.04343500 Ry
     estimated scf accuracy    <      18.38728935 Ry

     iteration #  3     ecut=    90.00 Ry     beta= 0.40
     Davidson diagonalization with overlap

---- Real-time Memory Report at c_bands before calling an iterative solver
           158 MiB given to the printing process from OS
             0 MiB allocation reported by mallinfo(arena+hblkhd)
        229266 MiB available memory on the node where the printing process lives
------------------
     ethr =  4.34E-03,  avg # of iterations =  3.9

     total cpu time spent up to now is       16.1 secs

     total energy              =   -1597.88862207 Ry
     estimated scf accuracy    <       0.45301704 Ry

     iteration #  4     ecut=    90.00 Ry     beta= 0.40
     Davidson diagonalization with overlap

---- Real-time Memory Report at c_bands before calling an iterative solver
           159 MiB given to the printing process from OS
             0 MiB allocation reported by mallinfo(arena+hblkhd)
        229277 MiB available memory on the node where the printing process lives
------------------
     ethr =  4.36E-04,  avg # of iterations =  3.1

     total cpu time spent up to now is       20.2 secs

     total energy              =   -1597.97122107 Ry
     estimated scf accuracy    <       0.03971016 Ry

     iteration #  5     ecut=    90.00 Ry     beta= 0.40
     Davidson diagonalization with overlap

---- Real-time Memory Report at c_bands before calling an iterative solver
           160 MiB given to the printing process from OS
             0 MiB allocation reported by mallinfo(arena+hblkhd)
        229245 MiB available memory on the node where the printing process lives
------------------
     ethr =  3.82E-05,  avg # of iterations =  5.2

     total cpu time spent up to now is       25.3 secs

     total energy              =   -1597.98139796 Ry
     estimated scf accuracy    <       0.00271157 Ry

     iteration #  6     ecut=    90.00 Ry     beta= 0.40
     Davidson diagonalization with overlap

---- Real-time Memory Report at c_bands before calling an iterative solver
           160 MiB given to the printing process from OS
             0 MiB allocation reported by mallinfo(arena+hblkhd)
        229254 MiB available memory on the node where the printing process lives
------------------
     ethr =  2.61E-06,  avg # of iterations =  5.8

     total cpu time spent up to now is       30.7 secs

     total energy              =   -1597.98189059 Ry
     estimated scf accuracy    <       0.00363869 Ry

     iteration #  7     ecut=    90.00 Ry     beta= 0.40
     Davidson diagonalization with overlap

---- Real-time Memory Report at c_bands before calling an iterative solver
           161 MiB given to the printing process from OS
             0 MiB allocation reported by mallinfo(arena+hblkhd)
        229257 MiB available memory on the node where the printing process lives
------------------
     ethr =  2.61E-06,  avg # of iterations =  2.4

     total cpu time spent up to now is       34.3 secs

     total energy              =   -1597.98201257 Ry
     estimated scf accuracy    <       0.00111704 Ry

     iteration #  8     ecut=    90.00 Ry     beta= 0.40
     Davidson diagonalization with overlap

---- Real-time Memory Report at c_bands before calling an iterative solver
           162 MiB given to the printing process from OS
             0 MiB allocation reported by mallinfo(arena+hblkhd)
        229253 MiB available memory on the node where the printing process lives
------------------
     ethr =  1.07E-06,  avg # of iterations =  2.3

     total cpu time spent up to now is       38.1 secs

     total energy              =   -1597.98221071 Ry
     estimated scf accuracy    <       0.00017226 Ry

     iteration #  9     ecut=    90.00 Ry     beta= 0.40
     Davidson diagonalization with overlap

---- Real-time Memory Report at c_bands before calling an iterative solver
           162 MiB given to the printing process from OS
             0 MiB allocation reported by mallinfo(arena+hblkhd)
        229245 MiB available memory on the node where the printing process lives
------------------
     ethr =  1.66E-07,  avg # of iterations =  5.0

     total cpu time spent up to now is       42.6 secs

     total energy              =   -1597.98224901 Ry
     estimated scf accuracy    <       0.00012416 Ry

     iteration # 10     ecut=    90.00 Ry     beta= 0.40
     Davidson diagonalization with overlap

---- Real-time Memory Report at c_bands before calling an iterative solver
           162 MiB given to the printing process from OS
             0 MiB allocation reported by mallinfo(arena+hblkhd)
        229237 MiB available memory on the node where the printing process lives
------------------
     ethr =  1.19E-07,  avg # of iterations =  1.2

     total cpu time spent up to now is       45.8 secs

     total energy              =   -1597.98223903 Ry
     estimated scf accuracy    <       0.00006232 Ry

     iteration # 11     ecut=    90.00 Ry     beta= 0.40
     Davidson diagonalization with overlap

---- Real-time Memory Report at c_bands before calling an iterative solver
           163 MiB given to the printing process from OS
             0 MiB allocation reported by mallinfo(arena+hblkhd)
        229227 MiB available memory on the node where the printing process lives
------------------
     ethr =  5.99E-08,  avg # of iterations =  2.1

     total cpu time spent up to now is       49.3 secs

     total energy              =   -1597.98224423 Ry
     estimated scf accuracy    <       0.00000339 Ry

     iteration # 12     ecut=    90.00 Ry     beta= 0.40
     Davidson diagonalization with overlap

---- Real-time Memory Report at c_bands before calling an iterative solver
           163 MiB given to the printing process from OS
             0 MiB allocation reported by mallinfo(arena+hblkhd)
        229229 MiB available memory on the node where the printing process lives
------------------
     ethr =  3.26E-09,  avg # of iterations =  6.9

     total cpu time spent up to now is       56.0 secs

     total energy              =   -1597.98224759 Ry
     estimated scf accuracy    <       0.00000330 Ry

     iteration # 13     ecut=    90.00 Ry     beta= 0.40
     Davidson diagonalization with overlap

---- Real-time Memory Report at c_bands before calling an iterative solver
           163 MiB given to the printing process from OS
             0 MiB allocation reported by mallinfo(arena+hblkhd)
        229238 MiB available memory on the node where the printing process lives
------------------
     ethr =  3.17E-09,  avg # of iterations =  2.0

     total cpu time spent up to now is       59.4 secs

     total energy              =   -1597.98224783 Ry
     estimated scf accuracy    <       0.00000015 Ry

     iteration # 14     ecut=    90.00 Ry     beta= 0.40
     Davidson diagonalization with overlap

---- Real-time Memory Report at c_bands before calling an iterative solver
           163 MiB given to the printing process from OS
             0 MiB allocation reported by mallinfo(arena+hblkhd)
        229239 MiB available memory on the node where the printing process lives
------------------
     ethr =  1.44E-10,  avg # of iterations =  6.9

     total cpu time spent up to now is       65.5 secs

     End of self-consistent calculation

          k = 0.0000 0.0000 0.0000 ( 24885 PWs)   bands (ev):

   -79.7364 -79.7364 -79.7364 -79.7364 -45.9840 -45.9840 -45.9840 -45.9838
   -45.9838 -45.9838 -45.9838 -45.9838 -45.9838 -45.9837 -45.9837 -45.9837
    -4.1007  -1.4713  -1.4713  -1.4713   0.0615   0.0615   0.0615   0.9923
     0.9923   0.9923   1.8993   1.8993   1.8993   1.8993   1.8993   1.8993
     2.2234   2.2234   2.6061   2.6061   2.6061   3.3349   3.3349   3.3349
     4.0625   4.0625   4.0625   4.7280   4.7280   4.7280   5.5054   5.5054
     5.5054   5.5054   5.5054   5.5054   7.3168   7.3168   7.3168   9.3097
     9.3097   9.3097  10.8012  10.8012  10.8012  10.8974

     occupation numbers 
     1.0000   1.0000   1.0000   1.0000   1.0000   1.0000   1.0000   1.0000
     1.0000   1.0000   1.0000   1.0000   1.0000   1.0000   1.0000   1.0000
     1.0000   1.0000   1.0000   1.0000   1.0000   1.0000   1.0000   1.0000
     1.0000   1.0000   1.0000   1.0000   1.0000   1.0000   1.0000   1.0000
     1.0000   1.0000   1.0000   1.0000   1.0000   1.0000   1.0000   1.0000
     1.0000   1.0000   1.0000   1.0000   1.0000   1.0000   1.0000   1.0000
     1.0000   1.0000   1.0000   1.0000   0.0000   0.0000   0.0000   0.0000
     0.0000   0.0000   0.0000   0.0000   0.0000   0.0000

          k = 0.0000 0.0000 0.1111 ( 25005 PWs)   bands (ev):

   -79.7365 -79.7364 -79.7364 -79.7364 -45.9841 -45.9841 -45.9841 -45.9839
   -45.9839 -45.9838 -45.9838 -45.9838 -45.9838 -45.9837 -45.9837 -45.9837
    -4.0572  -1.6932  -1.4323  -1.4323   0.0964   0.0964   0.2673   0.7896
     0.7896   1.0786   1.7898   1.7898   1.9268   1.9268   2.0072   2.0072
     2.1537   2.2344   2.5939   2.6811   2.6811   3.2497   3.2497   3.3220
     4.0815   4.1728   4.1728   4.7069   4.7971   4.7971   5.4907   5.4907
     5.4993   5.4993   5.5054   5.5055   7.3342   7.3900   7.3900   9.3287
     9.3729   9.3729  10.4595  10.6671  10.8761  10.9137

     occupation numbers 
     1.0000   1.0000   1.0000   1.0000   1.0000   1.0000   1.0000   1.0000
     1.0000   1.0000   1.0000   1.0000   1.0000   1.0000   1.0000   1.0000
     1.0000   1.0000   1.0000   1.0000   1.0000   1.0000   1.0000   1.0000
     1.0000   1.0000   1.0000   1.0000   1.0000   1.0000   1.0000   1.0000
     1.0000   1.0000   1.0000   1.0000   1.0000   1.0000   1.0000   1.0000
     1.0000   1.0000   1.0000   1.0000   1.0000   1.0000   1.0000   1.0000
     1.0000   1.0000   1.0000   1.0000   0.0000   0.0000   0.0000   0.0000
     0.0000   0.0000   0.0000   0.0000   0.0000   0.0000

          k = 0.0000 0.0000 0.2222 ( 25000 PWs)   bands (ev):

   -79.7364 -79.7364 -79.7364 -79.7364 -45.9840 -45.9840 -45.9840 -45.9839
   -45.9839 -45.9839 -45.9838 -45.9838 -45.9838 -45.9837 -45.9837 -45.9837
    -3.9272  -2.1405  -1.3172  -1.3172   0.2004   0.2004   0.3939   0.3939
     0.6188   1.3747   1.5247   1.5247   1.9690   2.0088   2.0088   2.1303
     2.1303   2.2660   2.5590   2.8859   2.8859   3.0439   3.0439   3.2596
     4.1366   4.4347   4.4347   4.6466   4.9542   4.9542   5.4433   5.4433
     5.4791   5.4791   5.5055   5.5055   7.3973   7.6120   7.6120   9.3868
     9.5693   9.5693   9.6540  10.3838  11.1028  11.1029

     occupation numbers 
     1.0000   1.0000   1.0000   1.0000   1.0000   1.0000   1.0000   1.0000
     1.0000   1.0000   1.0000   1.0000   1.0000   1.0000   1.0000   1.0000
     1.0000   1.0000   1.0000   1.0000   1.0000   1.0000   1.0000   1.0000
     1.0000   1.0000   1.0000   1.0000   1.0000   1.0000   1.0000   1.0000
     1.0000   1.0000   1.0000   1.0000   1.0000   1.0000   1.0000   1.0000
     1.0000   1.0000   1.0000   1.0000   1.0000   1.0000   1.0000   1.0000
     1.0000   1.0000   1.0000   1.0000   0.0000   0.0000   0.0000   0.0000
     0.0000   0.0000   0.0000   0.0000   0.0000   0.0000

          k = 0.0000 0.0000 0.3333 ( 24952 PWs)   bands (ev):

   -79.7364 -79.7364 -79.7364 -79.7364 -45.9840 -45.9840 -45.9840 -45.9839
   -45.9839 -45.9838 -45.9838 -45.9838 -45.9838 -45.9838 -45.9837 -45.9837
    -3.7127  -2.6134  -1.1351  -1.1351  -0.0149  -0.0149   0.3707   0.3707
     0.9068   1.2027   1.2027   1.7179   1.8585   2.1428   2.1428   2.1847
     2.1847   2.3151   2.5062   2.7939   2.7939   3.0999   3.1088   3.1088
     4.2221   4.5551   4.7361   4.7361   5.1244   5.1244   5.3547   5.3547
     5.4391   5.4391   5.5056   5.5056   7.5382   7.9739   7.9739   8.8733
     9.4876   9.9140   9.9140  10.0896  10.3987  10.3987

     occupation numbers 
     1.0000   1.0000   1.0000   1.0000   1.0000   1.0000   1.0000   1.0000
     1.0000   1.0000   1.0000   1.0000   1.0000   1.0000   1.0000   1.0000
     1.0000   1.0000   1.0000   1.0000   1.0000   1.0000   1.0000   1.0000
     1.0000   1.0000   1.0000   1.0000   1.0000   1.0000   1.0000   1.0000
     1.0000   1.0000   1.0000   1.0000   1.0000   1.0000   1.0000   1.0000
     1.0000   1.0000   1.0000   1.0000   1.0000   1.0000   1.0000   1.0000
     1.0000   1.0000   1.0000   1.0000   0.0000   0.0000   0.0000   0.0000
     0.0000   0.0000   0.0000   0.0000   0.0000   0.0000

          k = 0.0000 0.0000 0.4444 ( 24972 PWs)   bands (ev):

   -79.7364 -79.7364 -79.7364 -79.7364 -45.9840 -45.9840 -45.9839 -45.9839
   -45.9839 -45.9839 -45.9838 -45.9838 -45.9838 -45.9838 -45.9838 -45.9838
    -3.4172  -3.0470  -0.9284  -0.9284  -0.3429  -0.3429   0.6019   0.6019
     0.8847   0.8847   1.1703   1.4427   2.2038   2.2038   2.3245   2.3245
     2.3745   2.3763   2.4426   2.5460   2.5460   2.8055   3.2421   3.2422
     4.3288   4.4445   5.0052   5.0052   5.2122   5.2122   5.2673   5.2673
     5.3713   5.3713   5.5056   5.5056   7.8046   8.2439   8.3765   8.3765
     9.6357   9.7840   9.7841   9.8360  10.4188  10.4188

     occupation numbers 
     1.0000   1.0000   1.0000   1.0000   1.0000   1.0000   1.0000   1.0000
     1.0000   1.0000   1.0000   1.0000   1.0000   1.0000   1.0000   1.0000
     1.0000   1.0000   1.0000   1.0000   1.0000   1.0000   1.0000   1.0000
     1.0000   1.0000   1.0000   1.0000   1.0000   1.0000   1.0000   1.0000
     1.0000   1.0000   1.0000   1.0000   1.0000   1.0000   1.0000   1.0000
     1.0000   1.0000   1.0000   1.0000   1.0000   1.0000   1.0000   1.0000
     1.0000   1.0000   1.0000   1.0000   0.0000   0.0000   0.0000   0.0000
     0.0000   0.0000   0.0000   0.0000   0.0000   0.0000

          k = 0.0000 0.1111 0.1111 ( 24981 PWs)   bands (ev):

   -79.7365 -79.7364 -79.7364 -79.7364 -45.9841 -45.9841 -45.9840 -45.9839
   -45.9839 -45.9838 -45.9838 -45.9838 -45.9838 -45.9837 -45.9837 -45.9837
    -4.0137  -1.6538  -1.6538  -1.3941   0.1313   0.2982   0.2982   0.5906
     0.8690   0.8690   1.8180   1.8180   1.8279   2.0023   2.0398   2.0398
     2.1332   2.1958   2.6734   2.6734   2.7376   3.0532   3.1641   3.4479
     4.1905   4.1905   4.2647   4.7547   4.7993   4.8454   5.4848   5.4848
     5.4866   5.4953   5.4991   5.4991   7.4064   7.4064   7.4555   9.3924
     9.3924   9.4426  10.3530  10.6528  10.6575  10.8388

     occupation numbers 
     1.0000   1.0000   1.0000   1.0000   1.0000   1.0000   1.0000   1.0000
     1.0000   1.0000   1.0000   1.0000   1.0000   1.0000   1.0000   1.0000
     1.0000   1.0000   1.0000   1.0000   1.0000   1.0000   1.0000   1.0000
     1.0000   1.0000   1.0000   1.0000   1.0000   1.0000   1.0000   1.0000
     1.0000   1.0000   1.0000   1.0000   1.0000   1.0000   1.0000   1.0000
     1.0000   1.0000   1.0000   1.0000   1.0000   1.0000   1.0000   1.0000
     1.0000   1.0000   1.0000   1.0000   0.0000   0.0000   0.0000   0.0000
     0.0000   0.0000   0.0000   0.0000   0.0000   0.0000

          k = 0.0000 0.1111 0.2222 ( 24948 PWs)   bands (ev):

   -79.7364 -79.7364 -79.7364 -79.7364 -45.9840 -45.9840 -45.9840 -45.9839
   -45.9839 -45.9838 -45.9838 -45.9838 -45.9838 -45.9838 -45.9837 -45.9837
    -3.8839  -2.1002  -1.5371  -1.2826   0.1974   0.2349   0.3524   0.5095
     0.6214   1.1523   1.5542   1.6407   1.9019   1.9666   2.1178   2.1407
     2.1587   2.1941   2.6566   2.8147   2.8909   2.9143   2.9563   3.4828
     4.2420   4.4494   4.4889   4.7142   4.9431   4.9699   5.4382   5.4429
     5.4653   5.4782   5.4933   5.4986   7.4666   7.6250   7.6534   9.4519
     9.5901   9.6572   9.6705  10.4333  10.6287  11.0238

     occupation numbers 
     1.0000   1.0000   1.0000   1.0000   1.0000   1.0000   1.0000   1.0000
     1.0000   1.0000   1.0000   1.0000   1.0000   1.0000   1.0000   1.0000
     1.0000   1.0000   1.0000   1.0000   1.0000   1.0000   1.0000   1.0000
     1.0000   1.0000   1.0000   1.0000   1.0000   1.0000   1.0000   1.0000
     1.0000   1.0000   1.0000   1.0000   1.0000   1.0000   1.0000   1.0000
     1.0000   1.0000   1.0000   1.0000   1.0000   1.0000   1.0000   1.0000
     1.0000   1.0000   1.0000   1.0000   0.0000   0.0000   0.0000   0.0000
     0.0000   0.0000   0.0000   0.0000   0.0000   0.0000

          k = 0.0000 0.1111 0.3333 ( 24922 PWs)   bands (ev):

   -79.7364 -79.7364 -79.7364 -79.7364 -45.9840 -45.9840 -45.9840 -45.9839
   -45.9839 -45.9838 -45.9838 -45.9838 -45.9838 -45.9838 -45.9837 -45.9837
    -3.6697  -2.5723  -1.3499  -1.1131  -0.2019   0.0253   0.4047   0.5827
     0.8773   1.2337   1.3560   1.5677   1.7059   2.0389   2.1876   2.1966
     2.2064   2.3060   2.6054   2.6668   2.7026   3.1244   3.1294   3.3763
     4.3218   4.6307   4.7470   4.7579   5.1152   5.1219   5.3505   5.3560
     5.4264   5.4371   5.4941   5.4977   7.6023   7.9772   7.9792   8.9111
     9.5544   9.9366  10.0271  10.1536  10.3088  10.3536

     occupation numbers 
     1.0000   1.0000   1.0000   1.0000   1.0000   1.0000   1.0000   1.0000
     1.0000   1.0000   1.0000   1.0000   1.0000   1.0000   1.0000   1.0000
     1.0000   1.0000   1.0000   1.0000   1.0000   1.0000   1.0000   1.0000
     1.0000   1.0000   1.0000   1.0000   1.0000   1.0000   1.0000   1.0000
     1.0000   1.0000   1.0000   1.0000   1.0000   1.0000   1.0000   1.0000
     1.0000   1.0000   1.0000   1.0000   1.0000   1.0000   1.0000   1.0000
     1.0000   1.0000   1.0000   1.0000   0.0000   0.0000   0.0000   0.0000
     0.0000   0.0000   0.0000   0.0000   0.0000   0.0000

          k = 0.0000 0.1111 0.4444 ( 24972 PWs)   bands (ev):

   -79.7364 -79.7364 -79.7364 -79.7364 -45.9840 -45.9840 -45.9839 -45.9839
   -45.9839 -45.9839 -45.9838 -45.9838 -45.9838 -45.9838 -45.9838 -45.9837
    -3.3747  -3.0051  -1.1164  -0.9767  -0.4625  -0.3252   0.6351   0.7978
     0.9169   1.0628   1.1341   1.4155   1.9102   2.1227   2.2151   2.2203
     2.2243   2.4268   2.4502   2.4758   2.8354   3.1371   3.2630   3.2639
     4.4211   4.5284   5.0095   5.0122   5.2101   5.2159   5.2582   5.2610
     5.3598   5.3674   5.4953   5.4966   7.8616   8.2922   8.3454   8.3620
     9.7041   9.7208   9.7578   9.9044  10.4428  10.5550

     occupation numbers 
     1.0000   1.0000   1.0000   1.0000   1.0000   1.0000   1.0000   1.0000
     1.0000   1.0000   1.0000   1.0000   1.0000   1.0000   1.0000   1.0000
     1.0000   1.0000   1.0000   1.0000   1.0000   1.0000   1.0000   1.0000
     1.0000   1.0000   1.0000   1.0000   1.0000   1.0000   1.0000   1.0000
     1.0000   1.0000   1.0000   1.0000   1.0000   1.0000   1.0000   1.0000
     1.0000   1.0000   1.0000   1.0000   1.0000   1.0000   1.0000   1.0000
     1.0000   1.0000   1.0000   1.0000   0.0000   0.0000   0.0000   0.0000
     0.0000   0.0000   0.0000   0.0000   0.0000   0.0000

          k = 0.0000 0.2222 0.2222 ( 24972 PWs)   bands (ev):

   -79.7364 -79.7364 -79.7364 -79.7364 -45.9840 -45.9840 -45.9840 -45.9839
   -45.9839 -45.9838 -45.9838 -45.9838 -45.9838 -45.9838 -45.9837 -45.9837
    -3.7547  -1.9805  -1.9805  -1.1877  -0.1850   0.3377   0.5026   0.5026
     0.9243   0.9243   1.6421   1.6421   1.7078   1.9508   1.9613   2.1429
     2.2404   2.2404   2.6107   2.7420   2.9216   2.9216   3.0302   3.6765
     4.4919   4.4919   4.6299   4.8309   4.9484   5.0243   5.4205   5.4205
     5.4303   5.4647   5.4757   5.4757   7.6751   7.6751   7.7829   9.6008
     9.6532   9.6532   9.9188  10.0477  10.4868  10.7016

     occupation numbers 
     1.0000   1.0000   1.0000   1.0000   1.0000   1.0000   1.0000   1.0000
     1.0000   1.0000   1.0000   1.0000   1.0000   1.0000   1.0000   1.0000
     1.0000   1.0000   1.0000   1.0000   1.0000   1.0000   1.0000   1.0000
     1.0000   1.0000   1.0000   1.0000   1.0000   1.0000   1.0000   1.0000
     1.0000   1.0000   1.0000   1.0000   1.0000   1.0000   1.0000   1.0000
     1.0000   1.0000   1.0000   1.0000   1.0000   1.0000   1.0000   1.0000
     1.0000   1.0000   1.0000   1.0000   0.0000   0.0000   0.0000   0.0000
     0.0000   0.0000   0.0000   0.0000   0.0000   0.0000

          k = 0.0000 0.2222 0.3333 ( 24965 PWs)   bands (ev):

   -79.7364 -79.7364 -79.7364 -79.7364 -45.9840 -45.9840 -45.9840 -45.9839
   -45.9839 -45.9839 -45.9838 -45.9838 -45.9838 -45.9838 -45.9838 -45.9837
    -3.5414  -2.4496  -1.7855  -1.0980  -0.5115   0.1449   0.5057   0.6964
     0.9876   1.3258   1.3399   1.5710   1.6180   1.7856   1.9109   2.2125
     2.2685   2.3483   2.4786   2.5118   3.0311   3.1878   3.2141   3.6939
     4.5574   4.7782   4.8018   4.8192   5.0928   5.1203   5.3359   5.3577
     5.3846   5.4312   5.4590   5.4719   7.7942   8.0073   8.0097   9.0188
     9.7604  10.0042  10.0224  10.1112  10.1976  10.3312

     occupation numbers 
     1.0000   1.0000   1.0000   1.0000   1.0000   1.0000   1.0000   1.0000
     1.0000   1.0000   1.0000   1.0000   1.0000   1.0000   1.0000   1.0000
     1.0000   1.0000   1.0000   1.0000   1.0000   1.0000   1.0000   1.0000
     1.0000   1.0000   1.0000   1.0000   1.0000   1.0000   1.0000   1.0000
     1.0000   1.0000   1.0000   1.0000   1.0000   1.0000   1.0000   1.0000
     1.0000   1.0000   1.0000   1.0000   1.0000   1.0000   1.0000   1.0000
     1.0000   1.0000   1.0000   1.0000   0.0000   0.0000   0.0000   0.0000
     0.0000   0.0000   0.0000   0.0000   0.0000   0.0000

          k = 0.0000 0.2222 0.4444 ( 24946 PWs)   bands (ev):

   -79.7364 -79.7364 -79.7364 -79.7364 -45.9840 -45.9840 -45.9839 -45.9839
   -45.9839 -45.9839 -45.9838 -45.9838 -45.9838 -45.9838 -45.9838 -45.9837
    -3.2478  -2.8800  -1.5260  -1.2393  -0.5007  -0.2224   0.7339   0.9544
     1.0127   1.1554   1.2681   1.3626   1.6345   1.8135   1.9796   2.2156
     2.2538   2.2701   2.4235   2.4632   3.2632   3.3419   3.3463   3.5304
     4.6383   4.7242   5.0219   5.0322   5.2023   5.2261   5.2308   5.2435
     5.3227   5.3565   5.4624   5.4672   8.0313   8.2957   8.3404   8.4361
     9.5843   9.6781   9.9132  10.1093  10.1824  10.5134

     occupation numbers 
     1.0000   1.0000   1.0000   1.0000   1.0000   1.0000   1.0000   1.0000
     1.0000   1.0000   1.0000   1.0000   1.0000   1.0000   1.0000   1.0000
     1.0000   1.0000   1.0000   1.0000   1.0000   1.0000   1.0000   1.0000
     1.0000   1.0000   1.0000   1.0000   1.0000   1.0000   1.0000   1.0000
     1.0000   1.0000   1.0000   1.0000   1.0000   1.0000   1.0000   1.0000
     1.0000   1.0000   1.0000   1.0000   1.0000   1.0000   1.0000   1.0000
     1.0000   1.0000   1.0000   1.0000   0.0000   0.0000   0.0000   0.0000
     0.0000   0.0000   0.0000   0.0000   0.0000   0.0000

          k = 0.0000 0.3333 0.3333 ( 24982 PWs)   bands (ev):

   -79.7364 -79.7364 -79.7364 -79.7364 -45.9840 -45.9840 -45.9840 -45.9839
   -45.9839 -45.9839 -45.9838 -45.9838 -45.9838 -45.9838 -45.9838 -45.9837
    -3.3298  -2.2484  -2.2484  -1.2951  -0.5584   0.3414   0.3414   0.6711
     1.3094   1.3435   1.3435   1.4762   1.4762   1.6252   1.7784   2.2027
     2.2689   2.3510   2.3511   2.4777   3.3397   3.3397   3.3714   3.8541
     4.8257   4.8257   4.9156   4.9454   5.1014   5.1388   5.3058   5.3058
     5.3386   5.4124   5.4223   5.4223   8.0937   8.0937   8.1169   9.1043
     9.3830   9.8912   9.8912   9.8989  10.1163  10.1163

     occupation numbers 
     1.0000   1.0000   1.0000   1.0000   1.0000   1.0000   1.0000   1.0000
     1.0000   1.0000   1.0000   1.0000   1.0000   1.0000   1.0000   1.0000
     1.0000   1.0000   1.0000   1.0000   1.0000   1.0000   1.0000   1.0000
     1.0000   1.0000   1.0000   1.0000   1.0000   1.0000   1.0000   1.0000
     1.0000   1.0000   1.0000   1.0000   1.0000   1.0000   1.0000   1.0000
     1.0000   1.0000   1.0000   1.0000   1.0000   1.0000   1.0000   1.0000
     1.0000   1.0000   1.0000   1.0000   0.0000   0.0000   0.0000   0.0000
     0.0000   0.0000   0.0000   0.0000   0.0000   0.0000

          k = 0.0000 0.3333 0.4444 ( 24984 PWs)   bands (ev):

   -79.7364 -79.7364 -79.7364 -79.7364 -45.9840 -45.9840 -45.9840 -45.9839
   -45.9839 -45.9839 -45.9838 -45.9838 -45.9838 -45.9838 -45.9838 -45.9837
    -3.0385  -2.6742  -1.9748  -1.6427  -0.3478  -0.0306   0.6095   0.8954
     0.9397   1.1692   1.4390   1.5522   1.5731   1.6796   1.7007   1.9270
     2.3161   2.3410   2.4159   2.4522   3.5073   3.5079   3.5798   3.7980
     4.8826   4.9372   5.0447   5.0613   5.1866   5.1910   5.2220   5.2370
     5.2555   5.3405   5.4035   5.4119   8.2938   8.3083   8.3692   8.6622
     9.4189   9.4611   9.5217   9.6735  10.2678  10.4352

     occupation numbers 
     1.0000   1.0000   1.0000   1.0000   1.0000   1.0000   1.0000   1.0000
     1.0000   1.0000   1.0000   1.0000   1.0000   1.0000   1.0000   1.0000
     1.0000   1.0000   1.0000   1.0000   1.0000   1.0000   1.0000   1.0000
     1.0000   1.0000   1.0000   1.0000   1.0000   1.0000   1.0000   1.0000
     1.0000   1.0000   1.0000   1.0000   1.0000   1.0000   1.0000   1.0000
     1.0000   1.0000   1.0000   1.0000   1.0000   1.0000   1.0000   1.0000
     1.0000   1.0000   1.0000   1.0000   0.0000   0.0000   0.0000   0.0000
     0.0000   0.0000   0.0000   0.0000   0.0000   0.0000

          k = 0.0000 0.4444 0.4444 ( 24944 PWs)   bands (ev):

   -79.7364 -79.7364 -79.7364 -79.7364 -45.9840 -45.9840 -45.9839 -45.9839
   -45.9839 -45.9839 -45.9839 -45.9838 -45.9838 -45.9838 -45.9837 -45.9837
    -2.7510  -2.3922  -2.3922  -2.0425  -0.0910   0.2375   0.2375   0.5694
     1.1143   1.3811   1.3811   1.5920   1.5920   1.6065   1.6390   1.6586
     2.3701   2.4007   2.4007   2.4346   3.6798   3.7269   3.7269   3.8637
     5.0809   5.0897   5.0907   5.0907   5.1632   5.1672   5.1672   5.2180
     5.2326   5.3253   5.3253   5.3360   8.4342   8.5231   8.5231   8.8345
     8.9943   9.2136   9.2136   9.2876  10.7459  10.7494

     occupation numbers 
     1.0000   1.0000   1.0000   1.0000   1.0000   1.0000   1.0000   1.0000
     1.0000   1.0000   1.0000   1.0000   1.0000   1.0000   1.0000   1.0000
     1.0000   1.0000   1.0000   1.0000   1.0000   1.0000   1.0000   1.0000
     1.0000   1.0000   1.0000   1.0000   1.0000   1.0000   1.0000   1.0000
     1.0000   1.0000   1.0000   1.0000   1.0000   1.0000   1.0000   1.0000
     1.0000   1.0000   1.0000   1.0000   1.0000   1.0000   1.0000   1.0000
     1.0000   1.0000   1.0000   1.0000   0.0000   0.0000   0.0000   0.0000
     0.0000   0.0000   0.0000   0.0000   0.0000   0.0000

          k = 0.1111 0.1111 0.1111 ( 24993 PWs)   bands (ev):

   -79.7364 -79.7364 -79.7364 -79.7364 -45.9840 -45.9840 -45.9840 -45.9839
   -45.9839 -45.9838 -45.9838 -45.9838 -45.9838 -45.9838 -45.9837 -45.9837
    -3.9703  -1.6150  -1.6150  -1.6150   0.3259   0.3259   0.3259   0.6689
     0.6689   0.6689   1.8498   1.8498   1.8498   2.0477   2.0477   2.0477
     2.1395   2.1395   2.7301   2.7301   2.7301   2.7807   3.3694   3.3694
     4.2816   4.2816   4.2816   4.8208   4.8208   4.8440   5.4810   5.4810
     5.4810   5.4887   5.4887   5.4887   7.4710   7.4710   7.4710   9.4624
     9.4624   9.4624  10.3751  10.3751  10.5974  10.9151

     occupation numbers 
     1.0000   1.0000   1.0000   1.0000   1.0000   1.0000   1.0000   1.0000
     1.0000   1.0000   1.0000   1.0000   1.0000   1.0000   1.0000   1.0000
     1.0000   1.0000   1.0000   1.0000   1.0000   1.0000   1.0000   1.0000
     1.0000   1.0000   1.0000   1.0000   1.0000   1.0000   1.0000   1.0000
     1.0000   1.0000   1.0000   1.0000   1.0000   1.0000   1.0000   1.0000
     1.0000   1.0000   1.0000   1.0000   1.0000   1.0000   1.0000   1.0000
     1.0000   1.0000   1.0000   1.0000   0.0000   0.0000   0.0000   0.0000
     0.0000   0.0000   0.0000   0.0000   0.0000   0.0000

          k = 0.1111 0.1111 0.2222 ( 24946 PWs)   bands (ev):

   -79.7364 -79.7364 -79.7364 -79.7364 -45.9840 -45.9840 -45.9840 -45.9839
   -45.9839 -45.9838 -45.9838 -45.9838 -45.9838 -45.9838 -45.9837 -45.9837
    -3.8407  -2.0603  -1.5010  -1.5010   0.2296   0.2296   0.4628   0.4628
     0.5938   0.9805   1.6671   1.6671   1.9124   1.9633   2.1550   2.1585
     2.1585   2.1947   2.4745   2.7121   2.9150   2.9150   3.1849   3.4809
     4.3306   4.5033   4.5033   4.7755   4.9464   4.9704   5.4378   5.4378
     5.4626   5.4666   5.4862   5.4863   7.5285   7.6660   7.6660   9.5225
     9.6775   9.6775   9.6855  10.4316  10.4404  10.9736

     occupation numbers 
     1.0000   1.0000   1.0000   1.0000   1.0000   1.0000   1.0000   1.0000
     1.0000   1.0000   1.0000   1.0000   1.0000   1.0000   1.0000   1.0000
     1.0000   1.0000   1.0000   1.0000   1.0000   1.0000   1.0000   1.0000
     1.0000   1.0000   1.0000   1.0000   1.0000   1.0000   1.0000   1.0000
     1.0000   1.0000   1.0000   1.0000   1.0000   1.0000   1.0000   1.0000
     1.0000   1.0000   1.0000   1.0000   1.0000   1.0000   1.0000   1.0000
     1.0000   1.0000   1.0000   1.0000   0.0000   0.0000   0.0000   0.0000
     0.0000   0.0000   0.0000   0.0000   0.0000   0.0000

          k = 0.1111 0.1111 0.3333 ( 24927 PWs)   bands (ev):

   -79.7364 -79.7364 -79.7364 -79.7364 -45.9840 -45.9840 -45.9840 -45.9839
   -45.9839 -45.9838 -45.9838 -45.9838 -45.9838 -45.9838 -45.9837 -45.9837
    -3.6268  -2.5313  -1.3220  -1.3220  -0.1654  -0.1654   0.6079   0.6079
     0.8126   1.3871   1.3871   1.3925   1.6827   2.0041   2.1683   2.2187
     2.2187   2.2196   2.4652   2.6980   2.9768   3.1405   3.1405   3.4159
     4.4065   4.6985   4.7687   4.7687   5.0944   5.1315   5.3518   5.3518
     5.4230   5.4260   5.4861   5.4862   7.6595   7.9833   7.9833   8.9438
     9.6252  10.0470  10.0470  10.1981  10.2718  10.2718

     occupation numbers 
     1.0000   1.0000   1.0000   1.0000   1.0000   1.0000   1.0000   1.0000
     1.0000   1.0000   1.0000   1.0000   1.0000   1.0000   1.0000   1.0000
     1.0000   1.0000   1.0000   1.0000   1.0000   1.0000   1.0000   1.0000
     1.0000   1.0000   1.0000   1.0000   1.0000   1.0000   1.0000   1.0000
     1.0000   1.0000   1.0000   1.0000   1.0000   1.0000   1.0000   1.0000
     1.0000   1.0000   1.0000   1.0000   1.0000   1.0000   1.0000   1.0000
     1.0000   1.0000   1.0000   1.0000   0.0000   0.0000   0.0000   0.0000
     0.0000   0.0000   0.0000   0.0000   0.0000   0.0000

          k = 0.1111 0.1111 0.4444 ( 24961 PWs)   bands (ev):

   -79.7364 -79.7364 -79.7364 -79.7364 -45.9840 -45.9840 -45.9840 -45.9839
   -45.9839 -45.9839 -45.9838 -45.9838 -45.9838 -45.9838 -45.9838 -45.9838
    -3.3323  -2.9633  -1.1252  -1.1252  -0.4841  -0.4841   0.8184   0.8184
     1.0680   1.1022   1.1022   1.3659   1.7243   1.9844   2.0983   2.1571
     2.2394   2.2394   2.7169   2.8075   2.8315   3.1827   3.2808   3.2808
     4.5011   4.6029   5.0166   5.0166   5.2138   5.2138   5.2380   5.2659
     5.3491   5.3631   5.4862   5.4862   7.9123   8.3348   8.3348   8.3350
     9.6979   9.6979   9.7734   9.9672  10.5724  10.5724

     occupation numbers 
     1.0000   1.0000   1.0000   1.0000   1.0000   1.0000   1.0000   1.0000
     1.0000   1.0000   1.0000   1.0000   1.0000   1.0000   1.0000   1.0000
     1.0000   1.0000   1.0000   1.0000   1.0000   1.0000   1.0000   1.0000
     1.0000   1.0000   1.0000   1.0000   1.0000   1.0000   1.0000   1.0000
     1.0000   1.0000   1.0000   1.0000   1.0000   1.0000   1.0000   1.0000
     1.0000   1.0000   1.0000   1.0000   1.0000   1.0000   1.0000   1.0000
     1.0000   1.0000   1.0000   1.0000   0.0000   0.0000   0.0000   0.0000
     0.0000   0.0000   0.0000   0.0000   0.0000   0.0000

          k = 0.1111 0.2222 0.2222 ( 24966 PWs)   bands (ev):

   -79.7364 -79.7364 -79.7364 -79.7364 -45.9840 -45.9840 -45.9840 -45.9839
   -45.9839 -45.9838 -45.9838 -45.9838 -45.9838 -45.9838 -45.9837 -45.9837
    -3.7117  -1.9422  -1.9422  -1.3983  -0.1472   0.3471   0.3471   0.5429
     0.8885   0.8885   1.7229   1.7413   1.7413   1.9146   1.9528   2.2048
     2.2104   2.2869   2.2869   2.9285   2.9285   3.0269   3.1267   3.6106
     4.5451   4.5451   4.6431   4.8865   4.9435   5.0226   5.4202   5.4202
     5.4263   5.4565   5.4632   5.4632   7.7146   7.7146   7.7940   9.6225
     9.7384   9.7384   9.9367   9.9743  10.4037  10.6381

     occupation numbers 
     1.0000   1.0000   1.0000   1.0000   1.0000   1.0000   1.0000   1.0000
     1.0000   1.0000   1.0000   1.0000   1.0000   1.0000   1.0000   1.0000
     1.0000   1.0000   1.0000   1.0000   1.0000   1.0000   1.0000   1.0000
     1.0000   1.0000   1.0000   1.0000   1.0000   1.0000   1.0000   1.0000
     1.0000   1.0000   1.0000   1.0000   1.0000   1.0000   1.0000   1.0000
     1.0000   1.0000   1.0000   1.0000   1.0000   1.0000   1.0000   1.0000
     1.0000   1.0000   1.0000   1.0000   0.0000   0.0000   0.0000   0.0000
     0.0000   0.0000   0.0000   0.0000   0.0000   0.0000

          k = 0.1111 0.2222 0.3333 ( 24975 PWs)   bands (ev):

   -79.7364 -79.7364 -79.7364 -79.7364 -45.9840 -45.9840 -45.9840 -45.9839
   -45.9839 -45.9839 -45.9838 -45.9838 -45.9838 -45.9838 -45.9837 -45.9837
    -3.4988  -2.4096  -1.7511  -1.2642  -0.5165  -0.0477   0.5417   0.6981
     0.9860   1.2756   1.4787   1.5215   1.5909   1.8459   1.8851   2.1163
     2.2702   2.3137   2.4887   2.9527   3.0025   3.1896   3.2155   3.6419
     4.6100   4.8002   4.8298   4.8505   5.0667   5.1358   5.3372   5.3540
     5.3831   5.4193   5.4504   5.4602   7.8310   8.0133   8.0173   9.0401
     9.8400   9.9752  10.0857  10.1073  10.1349  10.3121

     occupation numbers 
     1.0000   1.0000   1.0000   1.0000   1.0000   1.0000   1.0000   1.0000
     1.0000   1.0000   1.0000   1.0000   1.0000   1.0000   1.0000   1.0000
     1.0000   1.0000   1.0000   1.0000   1.0000   1.0000   1.0000   1.0000
     1.0000   1.0000   1.0000   1.0000   1.0000   1.0000   1.0000   1.0000
     1.0000   1.0000   1.0000   1.0000   1.0000   1.0000   1.0000   1.0000
     1.0000   1.0000   1.0000   1.0000   1.0000   1.0000   1.0000   1.0000
     1.0000   1.0000   1.0000   1.0000   0.0000   0.0000   0.0000   0.0000
     0.0000   0.0000   0.0000   0.0000   0.0000   0.0000

          k = 0.1111 0.2222 0.4444 ( 24977 PWs)   bands (ev):

   -79.7364 -79.7364 -79.7364 -79.7364 -45.9840 -45.9840 -45.9840 -45.9839
   -45.9839 -45.9839 -45.9838 -45.9838 -45.9838 -45.9838 -45.9838 -45.9837
    -3.2057  -2.8388  -1.5035  -1.2698  -0.6399  -0.4114   0.8082   0.9062
     1.0939   1.1391   1.2598   1.3937   1.5575   1.7557   1.9532   2.0422
     2.3031   2.3154   2.6638   2.7964   3.2140   3.3482   3.3527   3.4835
     4.6903   4.7751   5.0289   5.0368   5.2035   5.2060   5.2242   5.2561
     5.3139   5.3509   5.4530   5.4566   8.0644   8.2928   8.3224   8.4642
     9.5666   9.6282   9.9792  10.1088  10.1758  10.6205

     occupation numbers 
     1.0000   1.0000   1.0000   1.0000   1.0000   1.0000   1.0000   1.0000
     1.0000   1.0000   1.0000   1.0000   1.0000   1.0000   1.0000   1.0000
     1.0000   1.0000   1.0000   1.0000   1.0000   1.0000   1.0000   1.0000
     1.0000   1.0000   1.0000   1.0000   1.0000   1.0000   1.0000   1.0000
     1.0000   1.0000   1.0000   1.0000   1.0000   1.0000   1.0000   1.0000
     1.0000   1.0000   1.0000   1.0000   1.0000   1.0000   1.0000   1.0000
     1.0000   1.0000   1.0000   1.0000   0.0000   0.0000   0.0000   0.0000
     0.0000   0.0000   0.0000   0.0000   0.0000   0.0000

          k = 0.1111 0.3333 0.3333 ( 24958 PWs)   bands (ev):

   -79.7364 -79.7364 -79.7364 -79.7364 -45.9840 -45.9840 -45.9840 -45.9839
   -45.9839 -45.9839 -45.9838 -45.9838 -45.9838 -45.9838 -45.9838 -45.9837
    -3.2877  -2.2104  -2.2104  -1.3320  -0.6920   0.1500   0.1500   0.8504
     1.1482   1.3067   1.3067   1.6141   1.6141   1.6353   1.7800   2.0096
     2.3470   2.4548   2.4548   2.8150   3.3206   3.3206   3.3675   3.8067
     4.8484   4.8484   4.9247   4.9818   5.0657   5.1584   5.3059   5.3059
     5.3371   5.4016   5.4109   5.4109   8.1023   8.1023   8.1252   9.1183
     9.3730   9.8518   9.8760   9.8760  10.1993  10.1993

     occupation numbers 
     1.0000   1.0000   1.0000   1.0000   1.0000   1.0000   1.0000   1.0000
     1.0000   1.0000   1.0000   1.0000   1.0000   1.0000   1.0000   1.0000
     1.0000   1.0000   1.0000   1.0000   1.0000   1.0000   1.0000   1.0000
     1.0000   1.0000   1.0000   1.0000   1.0000   1.0000   1.0000   1.0000
     1.0000   1.0000   1.0000   1.0000   1.0000   1.0000   1.0000   1.0000
     1.0000   1.0000   1.0000   1.0000   1.0000   1.0000   1.0000   1.0000
     1.0000   1.0000   1.0000   1.0000   0.0000   0.0000   0.0000   0.0000
     0.0000   0.0000   0.0000   0.0000   0.0000   0.0000

          k = 0.1111 0.3333 0.4444 ( 24999 PWs)   bands (ev):

   -79.7364 -79.7364 -79.7364 -79.7364 -45.9840 -45.9840 -45.9840 -45.9840
   -45.9839 -45.9839 -45.9838 -45.9838 -45.9838 -45.9838 -45.9838 -45.9837
    -2.9972  -2.6341  -1.9415  -1.6230  -0.5360  -0.2282   0.4221   0.7604
     1.0532   1.2721   1.4841   1.5335   1.5667   1.6891   1.7506   1.8783
     2.3986   2.4284   2.5850   2.6930   3.4997   3.5029   3.5472   3.7593
     4.9068   4.9637   5.0508   5.0667   5.1643   5.1894   5.2351   5.2363
     5.2499   5.3335   5.3930   5.4012   8.3045   8.3125   8.3618   8.6733
     9.4066   9.4559   9.4857   9.6644  10.3113  10.4004

     occupation numbers 
     1.0000   1.0000   1.0000   1.0000   1.0000   1.0000   1.0000   1.0000
     1.0000   1.0000   1.0000   1.0000   1.0000   1.0000   1.0000   1.0000
     1.0000   1.0000   1.0000   1.0000   1.0000   1.0000   1.0000   1.0000
     1.0000   1.0000   1.0000   1.0000   1.0000   1.0000   1.0000   1.0000
     1.0000   1.0000   1.0000   1.0000   1.0000   1.0000   1.0000   1.0000
     1.0000   1.0000   1.0000   1.0000   1.0000   1.0000   1.0000   1.0000
     1.0000   1.0000   1.0000   1.0000   0.0000   0.0000   0.0000   0.0000
     0.0000   0.0000   0.0000   0.0000   0.0000   0.0000

          k = 0.1111 0.4444 0.4444 ( 24979 PWs)   bands (ev):

   -79.7364 -79.7364 -79.7364 -79.7364 -45.9840 -45.9840 -45.9840 -45.9840
   -45.9839 -45.9839 -45.9838 -45.9838 -45.9838 -45.9838 -45.9837 -45.9837
    -2.7109  -2.3543  -2.3543  -2.0096  -0.2900   0.0390   0.0390   0.3754
     1.2479   1.4621   1.4621   1.6109   1.6109   1.6128   1.6620   1.6734
     2.4768   2.5304   2.5304   2.6091   3.6693   3.7091   3.7091   3.8381
     5.0927   5.0965   5.0978   5.0979   5.1462   5.1664   5.1664   5.2214
     5.2342   5.3162   5.3162   5.3237   8.4419   8.5242   8.5242   8.8395
     8.9922   9.2064   9.2064   9.2632  10.6172  10.7080

     occupation numbers 
     1.0000   1.0000   1.0000   1.0000   1.0000   1.0000   1.0000   1.0000
     1.0000   1.0000   1.0000   1.0000   1.0000   1.0000   1.0000   1.0000
     1.0000   1.0000   1.0000   1.0000   1.0000   1.0000   1.0000   1.0000
     1.0000   1.0000   1.0000   1.0000   1.0000   1.0000   1.0000   1.0000
     1.0000   1.0000   1.0000   1.0000   1.0000   1.0000   1.0000   1.0000
     1.0000   1.0000   1.0000   1.0000   1.0000   1.0000   1.0000   1.0000
     1.0000   1.0000   1.0000   1.0000   0.0000   0.0000   0.0000   0.0000
     0.0000   0.0000   0.0000   0.0000   0.0000   0.0000

          k = 0.2222 0.2222 0.2222 ( 24963 PWs)   bands (ev):

   -79.7364 -79.7364 -79.7364 -79.7364 -45.9840 -45.9840 -45.9840 -45.9839
   -45.9839 -45.9839 -45.9838 -45.9838 -45.9838 -45.9838 -45.9837 -45.9837
    -3.5834  -1.8299  -1.8299  -1.8298  -0.0282  -0.0282  -0.0282   0.9295
     0.9295   0.9295   1.6238   1.7648   1.7648   1.7648   1.9557   1.9557
     2.4018   2.4018   2.4018   3.0216   3.0216   3.0216   3.4574   3.4574
     4.6815   4.6815   4.6815   4.9496   5.0122   5.0122   5.4128   5.4128
     5.4128   5.4289   5.4289   5.4289   7.8380   7.8380   7.8380   9.6863
     9.6863   9.9890   9.9890   9.9890  10.2000  10.4791

     occupation numbers 
     1.0000   1.0000   1.0000   1.0000   1.0000   1.0000   1.0000   1.0000
     1.0000   1.0000   1.0000   1.0000   1.0000   1.0000   1.0000   1.0000
     1.0000   1.0000   1.0000   1.0000   1.0000   1.0000   1.0000   1.0000
     1.0000   1.0000   1.0000   1.0000   1.0000   1.0000   1.0000   1.0000
     1.0000   1.0000   1.0000   1.0000   1.0000   1.0000   1.0000   1.0000
     1.0000   1.0000   1.0000   1.0000   1.0000   1.0000   1.0000   1.0000
     1.0000   1.0000   1.0000   1.0000   0.0000   0.0000   0.0000   0.0000
     0.0000   0.0000   0.0000   0.0000   0.0000   0.0000

          k = 0.2222 0.2222 0.3333 ( 24991 PWs)   bands (ev):

   -79.7364 -79.7364 -79.7364 -79.7364 -45.9840 -45.9840 -45.9840 -45.9839
   -45.9839 -45.9839 -45.9838 -45.9838 -45.9838 -45.9838 -45.9837 -45.9837
    -3.3717  -2.2910  -1.6561  -1.6561  -0.4320  -0.4320   0.1708   1.0448
     1.0448   1.1901   1.2702   1.6439   1.6440   1.8238   1.8359   1.9512
     2.4536   2.4536   2.7344   3.0277   3.2294   3.2294   3.2883   3.5777
     4.7415   4.8606   4.8606   4.9509   5.0415   5.1462   5.3401   5.3401
     5.3746   5.3848   5.4229   5.4229   7.9467   8.0514   8.0514   9.1067
     9.7891   9.9841   9.9841  10.0691  10.1643  10.3858

     occupation numbers 
     1.0000   1.0000   1.0000   1.0000   1.0000   1.0000   1.0000   1.0000
     1.0000   1.0000   1.0000   1.0000   1.0000   1.0000   1.0000   1.0000
     1.0000   1.0000   1.0000   1.0000   1.0000   1.0000   1.0000   1.0000
     1.0000   1.0000   1.0000   1.0000   1.0000   1.0000   1.0000   1.0000
     1.0000   1.0000   1.0000   1.0000   1.0000   1.0000   1.0000   1.0000
     1.0000   1.0000   1.0000   1.0000   1.0000   1.0000   1.0000   1.0000
     1.0000   1.0000   1.0000   1.0000   0.0000   0.0000   0.0000   0.0000
     0.0000   0.0000   0.0000   0.0000   0.0000   0.0000

[...]
     atom    8 type  3   force =    -0.00000000   -0.00000000    0.00000000
     atom    9 type  1   force =    -0.00000000   -0.00000000   -0.00000000
     atom   10 type  1   force =    -0.00000000    0.00000000    0.00000000
     atom   11 type  1   force =     0.00000000   -0.00000000    0.00000000
     atom   12 type  1   force =     0.00000000    0.00000000   -0.00000000
     atom   13 type  2   force =    -0.00000000   -3.00592336   -0.00000000
     atom   14 type  2   force =    -0.00000000   -0.00000000    3.00592336
     atom   15 type  2   force =     0.00000000   -0.00000000   -3.00592336
     atom   16 type  2   force =     0.00000000    3.00592336   -0.00000000
     atom   17 type  2   force =    -3.00592336   -0.00000000   -0.00000000
     atom   18 type  2   force =     3.00592336    0.00000000   -0.00000000
     atom   19 type  2   force =    -0.00000000   -3.00592336    0.00000000
     atom   20 type  2   force =    -0.00000000   -0.00000000    3.00592336
     atom   21 type  2   force =     0.00000000    0.00000000   -3.00592336
     atom   22 type  2   force =     0.00000000    3.00592336   -0.00000000
     atom   23 type  2   force =    -3.00592336   -0.00000000    0.00000000
     atom   24 type  2   force =     3.00592336    0.00000000   -0.00000000
     atom   25 type  2   force =    -0.00000000   -3.00592336    0.00000000
     atom   26 type  2   force =    -0.00000000   -0.00000000    3.00592336
     atom   27 type  2   force =    -0.00000000   -0.00000000   -3.00592336
     atom   28 type  2   force =     0.00000000    3.00592336   -0.00000000
     atom   29 type  2   force =    -3.00592336   -0.00000000    0.00000000
     atom   30 type  2   force =     3.00592336    0.00000000   -0.00000000
     atom   31 type  2   force =    -0.00000000   -3.00592336   -0.00000000
     atom   32 type  2   force =    -0.00000000   -0.00000000    3.00592336
     atom   33 type  2   force =    -0.00000000    0.00000000   -3.00592336
     atom   34 type  2   force =     0.00000000    3.00592336   -0.00000000
     atom   35 type  2   force =    -3.00592336   -0.00000000   -0.00000000
     atom   36 type  2   force =     3.00592336    0.00000000   -0.00000000
     The local contribution  to forces
     atom    1 type  3   force =    -0.00000058   -0.00000058    0.00000058
     atom    2 type  3   force =    -0.00000058   -0.00000058   -0.00000058
     atom    3 type  3   force =    -0.00000058    0.00000058   -0.00000058
     atom    4 type  3   force =    -0.00000058    0.00000058    0.00000058
     atom    5 type  3   force =     0.00000058   -0.00000058   -0.00000058
     atom    6 type  3   force =     0.00000058   -0.00000058    0.00000058
     atom    7 type  3   force =     0.00000058    0.00000058    0.00000058
     atom    8 type  3   force =     0.00000058    0.00000058   -0.00000058
     atom    9 type  1   force =     0.00000000    0.00000000    0.00000000
     atom   10 type  1   force =     0.00000000    0.00000000    0.00000000
     atom   11 type  1   force =     0.00000000    0.00000000    0.00000000
     atom   12 type  1   force =     0.00000000    0.00000000    0.00000000
     atom   13 type  2   force =    -0.00000000    2.98007068    0.00000000
     atom   14 type  2   force =     0.00000000   -0.00000000   -2.98007672
     atom   15 type  2   force =    -0.00000000    0.00000000    2.98007672
     atom   16 type  2   force =     0.00000000   -2.98007672    0.00000000
     atom   17 type  2   force =     2.98007068   -0.00000000    0.00000000
     atom   18 type  2   force =    -2.98007068    0.00000000    0.00000000
     atom   19 type  2   force =    -0.00000000    2.98007672   -0.00000000
     atom   20 type  2   force =     0.00000000    0.00000000   -2.98007681
     atom   21 type  2   force =    -0.00000000   -0.00000000    2.98007681
     atom   22 type  2   force =     0.00000000   -2.98007681    0.00000000
     atom   23 type  2   force =     2.98007681   -0.00000000   -0.00000000
     atom   24 type  2   force =    -2.98007681    0.00000000    0.00000000
     atom   25 type  2   force =    -0.00000000    2.98007681   -0.00000000
     atom   26 type  2   force =     0.00000000    0.00000000   -2.98007068
     atom   27 type  2   force =    -0.00000000    0.00000000    2.98007068
     atom   28 type  2   force =     0.00000000   -2.98007672    0.00000000
     atom   29 type  2   force =     2.98007672   -0.00000000    0.00000000
     atom   30 type  2   force =    -2.98007672    0.00000000    0.00000000
     atom   31 type  2   force =    -0.00000000    2.98007672    0.00000000
     atom   32 type  2   force =     0.00000000    0.00000000   -2.98007672
     atom   33 type  2   force =    -0.00000000   -0.00000000    2.98007672
     atom   34 type  2   force =     0.00000000   -2.98007068    0.00000000
     atom   35 type  2   force =     2.98007672    0.00000000   -0.00000000
     atom   36 type  2   force =    -2.98007672   -0.00000000    0.00000000
     The core correction contribution to forces
     atom    1 type  3   force =     0.00000003    0.00000003   -0.00000003
     atom    2 type  3   force =     0.00000003    0.00000003    0.00000003
     atom    3 type  3   force =     0.00000003   -0.00000003    0.00000003
     atom    4 type  3   force =     0.00000003   -0.00000003   -0.00000003
     atom    5 type  3   force =    -0.00000003    0.00000003    0.00000003
     atom    6 type  3   force =    -0.00000003    0.00000003   -0.00000003
     atom    7 type  3   force =    -0.00000003   -0.00000003   -0.00000003
     atom    8 type  3   force =    -0.00000003   -0.00000003    0.00000003
     atom    9 type  1   force =     0.00000000    0.00000000   -0.00000000
     atom   10 type  1   force =     0.00000000   -0.00000000   -0.00000000
     atom   11 type  1   force =    -0.00000000   -0.00000000   -0.00000000
     atom   12 type  1   force =    -0.00000000   -0.00000000    0.00000000
     atom   13 type  2   force =     0.00000000    0.00000000    0.00000000
     atom   14 type  2   force =     0.00000000    0.00000000    0.00000000
     atom   15 type  2   force =     0.00000000    0.00000000    0.00000000
     atom   16 type  2   force =     0.00000000    0.00000000    0.00000000
     atom   17 type  2   force =     0.00000000    0.00000000    0.00000000
     atom   18 type  2   force =     0.00000000    0.00000000    0.00000000
     atom   19 type  2   force =     0.00000000    0.00000000    0.00000000
     atom   20 type  2   force =     0.00000000    0.00000000    0.00000000
     atom   21 type  2   force =     0.00000000    0.00000000    0.00000000
     atom   22 type  2   force =     0.00000000    0.00000000    0.00000000
     atom   23 type  2   force =     0.00000000    0.00000000    0.00000000
     atom   24 type  2   force =     0.00000000    0.00000000    0.00000000
     atom   25 type  2   force =     0.00000000    0.00000000    0.00000000
     atom   26 type  2   force =     0.00000000    0.00000000    0.00000000
     atom   27 type  2   force =     0.00000000    0.00000000    0.00000000
     atom   28 type  2   force =     0.00000000    0.00000000    0.00000000
     atom   29 type  2   force =     0.00000000    0.00000000    0.00000000
     atom   30 type  2   force =     0.00000000    0.00000000    0.00000000
     atom   31 type  2   force =     0.00000000    0.00000000    0.00000000
     atom   32 type  2   force =     0.00000000    0.00000000    0.00000000
     atom   33 type  2   force =     0.00000000    0.00000000    0.00000000
     atom   34 type  2   force =     0.00000000    0.00000000    0.00000000
     atom   35 type  2   force =     0.00000000    0.00000000    0.00000000
     atom   36 type  2   force =     0.00000000    0.00000000    0.00000000
     The Hubbard contrib.    to forces
     atom    1 type  3   force =     0.00000000    0.00000000    0.00000000
     atom    2 type  3   force =     0.00000000    0.00000000    0.00000000
     atom    3 type  3   force =     0.00000000    0.00000000    0.00000000
     atom    4 type  3   force =     0.00000000    0.00000000    0.00000000
     atom    5 type  3   force =     0.00000000    0.00000000    0.00000000
     atom    6 type  3   force =     0.00000000    0.00000000    0.00000000
     atom    7 type  3   force =     0.00000000    0.00000000    0.00000000
     atom    8 type  3   force =     0.00000000    0.00000000    0.00000000
     atom    9 type  1   force =     0.00000000    0.00000000    0.00000000
     atom   10 type  1   force =     0.00000000    0.00000000    0.00000000
     atom   11 type  1   force =     0.00000000    0.00000000    0.00000000
     atom   12 type  1   force =     0.00000000    0.00000000    0.00000000
     atom   13 type  2   force =     0.00000000    0.00000000    0.00000000
     atom   14 type  2   force =     0.00000000    0.00000000    0.00000000
     atom   15 type  2   force =     0.00000000    0.00000000    0.00000000
     atom   16 type  2   force =     0.00000000    0.00000000    0.00000000
     atom   17 type  2   force =     0.00000000    0.00000000    0.00000000
     atom   18 type  2   force =     0.00000000    0.00000000    0.00000000
     atom   19 type  2   force =     0.00000000    0.00000000    0.00000000
     atom   20 type  2   force =     0.00000000    0.00000000    0.00000000
     atom   21 type  2   force =     0.00000000    0.00000000    0.00000000
     atom   22 type  2   force =     0.00000000    0.00000000    0.00000000
     atom   23 type  2   force =     0.00000000    0.00000000    0.00000000
     atom   24 type  2   force =     0.00000000    0.00000000    0.00000000
     atom   25 type  2   force =     0.00000000    0.00000000    0.00000000
     atom   26 type  2   force =     0.00000000    0.00000000    0.00000000
     atom   27 type  2   force =     0.00000000    0.00000000    0.00000000
     atom   28 type  2   force =     0.00000000    0.00000000    0.00000000
     atom   29 type  2   force =     0.00000000    0.00000000    0.00000000
     atom   30 type  2   force =     0.00000000    0.00000000    0.00000000
     atom   31 type  2   force =     0.00000000    0.00000000    0.00000000
     atom   32 type  2   force =     0.00000000    0.00000000    0.00000000
     atom   33 type  2   force =     0.00000000    0.00000000    0.00000000
     atom   34 type  2   force =     0.00000000    0.00000000    0.00000000
     atom   35 type  2   force =     0.00000000    0.00000000    0.00000000
     atom   36 type  2   force =     0.00000000    0.00000000    0.00000000
     The SCF correction term to forces
     atom    1 type  3   force =     0.00000090    0.00000090   -0.00000090
     atom    2 type  3   force =     0.00000090    0.00000090    0.00000090
     atom    3 type  3   force =     0.00000090   -0.00000090    0.00000090
     atom    4 type  3   force =     0.00000090   -0.00000090   -0.00000090
     atom    5 type  3   force =    -0.00000090    0.00000090    0.00000090
     atom    6 type  3   force =    -0.00000090    0.00000090   -0.00000090
     atom    7 type  3   force =    -0.00000090   -0.00000090   -0.00000090
     atom    8 type  3   force =    -0.00000090   -0.00000090    0.00000090
     atom    9 type  1   force =    -0.00000000    0.00000000   -0.00000000
     atom   10 type  1   force =    -0.00000000    0.00000000    0.00000000
     atom   11 type  1   force =    -0.00000000   -0.00000000    0.00000000
     atom   12 type  1   force =    -0.00000000    0.00000000    0.00000000
     atom   13 type  2   force =    -0.00000000    0.00000480   -0.00000000
     atom   14 type  2   force =     0.00000000    0.00000000    0.00000028
     atom   15 type  2   force =     0.00000000   -0.00000000   -0.00000028
     atom   16 type  2   force =    -0.00000000    0.00000028   -0.00000000
     atom   17 type  2   force =     0.00000480   -0.00000000   -0.00000000
     atom   18 type  2   force =    -0.00000480    0.00000000   -0.00000000
     atom   19 type  2   force =     0.00000000   -0.00000028    0.00000000
     atom   20 type  2   force =     0.00000000    0.00000000    0.00000024
     atom   21 type  2   force =    -0.00000000   -0.00000000   -0.00000024
     atom   22 type  2   force =    -0.00000000    0.00000024    0.00000000
     atom   23 type  2   force =    -0.00000024   -0.00000000    0.00000000
     atom   24 type  2   force =     0.00000024   -0.00000000    0.00000000
     atom   25 type  2   force =     0.00000000   -0.00000024    0.00000000
     atom   26 type  2   force =     0.00000000    0.00000000   -0.00000480
     atom   27 type  2   force =    -0.00000000   -0.00000000    0.00000480
     atom   28 type  2   force =    -0.00000000    0.00000028    0.00000000
     atom   29 type  2   force =    -0.00000028    0.00000000    0.00000000
     atom   30 type  2   force =     0.00000028   -0.00000000   -0.00000000
     atom   31 type  2   force =    -0.00000000   -0.00000028   -0.00000000
     atom   32 type  2   force =     0.00000000   -0.00000000    0.00000028
     atom   33 type  2   force =     0.00000000   -0.00000000   -0.00000028
     atom   34 type  2   force =    -0.00000000   -0.00000480   -0.00000000
     atom   35 type  2   force =    -0.00000028   -0.00000000   -0.00000000
     atom   36 type  2   force =     0.00000028   -0.00000000   -0.00000000

     Total force =     0.021611     Total SCF correction =     0.000013


     Computing stress (Cartesian axis) and pressure

          total   stress  (Ry/bohr**3)                   (kbar)     P=        0.03
   0.00000019   0.00000000   0.00000000            0.03        0.00        0.00
   0.00000000   0.00000019   0.00000000            0.00        0.03        0.00
   0.00000000   0.00000000   0.00000019            0.00        0.00        0.03

     kinetic stress (kbar)  17234.48      0.00      0.00
                                0.00  17234.48      0.00
                                0.00      0.00  17234.48

     local   stress (kbar)  -1925.36     -0.00     -0.00
                               -0.00  -1925.36      0.00
                               -0.00      0.00  -1925.36

     nonloc. stress (kbar) -11918.65      0.00      0.00
                                0.00 -11918.65      0.00
                                0.00      0.00 -11918.65

     hartree stress (kbar)  13890.55      0.00      0.00
                                0.00  13890.55     -0.00
                                0.00     -0.00  13890.55

     exc-cor stress (kbar)   -633.28     -0.00      0.00
                               -0.00   -633.28      0.00
                                0.00      0.00   -633.28

     corecor stress (kbar)  -3458.70      0.00      0.00
                                0.00  -3458.70      0.00
                                0.00      0.00  -3458.70

     ewald   stress (kbar) -13189.02      0.00      0.00
                                0.00 -13189.02      0.00
                                0.00      0.00 -13189.02

     hubbard stress (kbar)      0.00      0.00      0.00
                                0.00      0.00      0.00
                                0.00      0.00      0.00

     DFT-D   stress (kbar)      0.00      0.00      0.00
                                0.00      0.00      0.00
                                0.00      0.00      0.00

     XDM     stress (kbar)      0.00      0.00      0.00
                                0.00      0.00      0.00
                                0.00      0.00      0.00

     dft-nl  stress (kbar)      0.00      0.00      0.00
                                0.00      0.00      0.00
                                0.00      0.00      0.00

     TS-vdW  stress (kbar)      0.00      0.00      0.00
                                0.00      0.00      0.00
                                0.00      0.00      0.00

     MDB     stress (kbar)      0.00      0.00      0.00
                                0.00      0.00      0.00
                                0.00      0.00      0.00

     3D-RISM stress (kbar)      0.00      0.00      0.00
                                0.00      0.00      0.00
                                0.00      0.00      0.00


     Writing all to output data dir ./out/fe-kp-9.save/

     init_run     :      2.56s CPU      3.04s WALL (       1 calls)
     electrons    :     52.64s CPU     62.36s WALL (       1 calls)
     forces       :      0.93s CPU      1.03s WALL (       1 calls)
     stress       :      6.45s CPU      6.60s WALL (       1 calls)

     Called by init_run:
     wfcinit      :      1.61s CPU      1.84s WALL (       1 calls)
     wfcinit:atom :      0.03s CPU      0.03s WALL (      18 calls)
     wfcinit:wfcr :      1.47s CPU      1.70s WALL (      18 calls)
     potinit      :      0.37s CPU      0.42s WALL (       1 calls)
     hinit0       :      0.20s CPU      0.26s WALL (       1 calls)

     Called by electrons:
     c_bands      :     43.07s CPU     50.01s WALL (      14 calls)
     sum_band     :      6.95s CPU      8.51s WALL (      14 calls)
     v_of_rho     :      0.73s CPU      0.83s WALL (      15 calls)
     v_h          :      0.08s CPU      0.09s WALL (      15 calls)
     v_xc         :      0.73s CPU      0.84s WALL (      17 calls)
     newd         :      1.33s CPU      1.76s WALL (      15 calls)
     PAW_pot      :      0.50s CPU      1.07s WALL (      15 calls)
     mix_rho      :      0.10s CPU      0.12s WALL (      14 calls)

     Called by c_bands:
     init_us_2    :      0.71s CPU      0.77s WALL (     558 calls)
     init_us_2:cp :      0.70s CPU      0.77s WALL (     558 calls)
     cegterg      :     40.96s CPU     46.02s WALL (     252 calls)

     Called by sum_band:
     sum_band:wei :      0.01s CPU      0.01s WALL (      14 calls)
     sum_band:loo :      5.36s CPU      6.28s WALL (      14 calls)
     sum_band:buf :      0.12s CPU      0.12s WALL (     252 calls)
     sum_band:ini :      0.27s CPU      0.28s WALL (     252 calls)
     sum_band:cal :      0.93s CPU      1.08s WALL (     252 calls)
     sum_band:bec :      0.03s CPU      0.03s WALL (     252 calls)
     addusdens    :      1.47s CPU      2.05s WALL (      14 calls)
                                        0.00s GPU  (      14 calls)
     addusd:skk   :      0.07s CPU      0.07s WALL (      42 calls)
                                        0.00s GPU  (      42 calls)

     Called by *egterg:
     cdiaghg      :      5.44s CPU      5.67s WALL (    1189 calls)
     cegterg:over :      2.07s CPU      2.39s WALL (     937 calls)
     cegterg:upda :      1.21s CPU      1.25s WALL (     937 calls)
     cegterg:last :      2.57s CPU      2.58s WALL (     563 calls)
     h_psi        :     27.40s CPU     31.80s WALL (    1207 calls)
     s_psi        :      2.28s CPU      2.33s WALL (    1207 calls)
     g_psi        :      0.07s CPU      0.07s WALL (     937 calls)

     Called by h_psi:
     h_psi:calbec :      3.61s CPU      4.07s WALL (    1207 calls)
     vloc_psi     :     21.18s CPU     25.02s WALL (    1207 calls)
     add_vuspsi   :      2.36s CPU      2.44s WALL (    1207 calls)

     General routines
     calbec       :      4.85s CPU      5.47s WALL (    1549 calls)
     fft          :      0.57s CPU      0.70s WALL (     218 calls)
     ffts         :      0.16s CPU      0.17s WALL (      29 calls)
     fftw         :     20.69s CPU     24.51s WALL (  103606 calls)
     interpolate  :      0.20s CPU      0.21s WALL (      15 calls)

     Parallel routines

     PAW routines
     PAW_pot      :      0.50s CPU      1.07s WALL (      15 calls)
     PAW_symme    :      0.01s CPU      0.02s WALL (      29 calls)

     PWSCF        :   1m 3.16s CPU   1m15.07s WALL


   This run was terminated on:  22:36:21  13Jun2025            

=------------------------------------------------------------------------------=
   JOB DONE.
=------------------------------------------------------------------------------=
