
     Program PWSCF v.7.2 starts on 13Jun2025 at 22:33:44 

     This program is part of the open-source Quantum ESPRESSO suite
     for quantum simulation of materials; please cite
         "P. Giannozzi et al., J. Phys.:Condens. Matter 21 395502 (2009);
         "P. Giannozzi et al., J. Phys.:Condens. Matter 29 465901 (2017);
         "P. Giannozzi et al., J. Chem. Phys. 152 154105 (2020);
          URL http://www.quantum-espresso.org", 
     in publications or presentations arising from this work. More details at
     http://www.quantum-espresso.org/quote

     Parallel version (MPI & OpenMP), running on      64 processor cores
     Number of MPI processes:                64
     Threads/MPI process:                     1

     MPI processes distributed on     1 nodes
     234455 MiB available memory on the printing compute node when the environment starts

     Reading input from fe_kp_8.in

     Current dimensions of program PWSCF are:
     Max number of different atomic species (ntypx) = 10
     Max number of k-points (npk) =  40000
     Max angular momentum in pseudopotentials (lmaxx) =  4
     file Fe.pbesol-spn-kjpaw_psl.0.2.1.UPF: wavefunction(s)  3D renormalized
     file Mg.pbesol-n-kjpaw_psl.0.3.0.UPF: wavefunction(s)  3S renormalized
     Found identity + (  0.0000  0.5000 -0.5000) symmetry
     This is a supercell, fractional translations are disabled
     Message from routine setup:
     using ibrav=0 with symmetry is DISCOURAGED, use correct ibrav instead

     K-points division:     npool     =       2
     R & G space division:  proc/nbgrp/npool/nimage =      32
     Subspace diagonalization in iterative solution of the eigenvalue problem:
     a serial algorithm will be used


     Parallelization info
     --------------------
     sticks:   dense  smooth     PW     G-vecs:    dense   smooth      PW
     Min         387     129     35                32439     6247     890
     Max         388     130     37                32443     6250     893
     Sum       12393    4149   1125              1038085   199949   28545

     Using Slab Decomposition



     bravais-lattice index     =            0
     lattice parameter (alat)  =      12.0093  a.u.
     unit-cell volume          =    1732.0312 (a.u.)^3
     number of atoms/cell      =           36
     number of atomic types    =            3
     number of electrons       =       104.00
     number of Kohn-Sham states=           62
     kinetic-energy cutoff     =      90.0000  Ry
     charge density cutoff     =    1080.0000  Ry
     scf convergence threshold =      7.2E-09
     mixing beta               =       0.4000
     number of iterations used =            8  plain     mixing
     Exchange-correlation= SLA  PW   PSX  PSC
                           (   1   4  10   8   0   0   0)

     celldm(1)=  12.009324  celldm(2)=   0.000000  celldm(3)=   0.000000
     celldm(4)=   0.000000  celldm(5)=   0.000000  celldm(6)=   0.000000

     crystal axes: (cart. coord. in units of alat)
               a(1) = (   1.000000   0.000000   0.000000 )  
               a(2) = (   0.000000   1.000000   0.000000 )  
               a(3) = (   0.000000   0.000000   1.000000 )  

     reciprocal axes: (cart. coord. in units 2 pi/alat)
               b(1) = (  1.000000  0.000000  0.000000 )  
               b(2) = (  0.000000  1.000000  0.000000 )  
               b(3) = (  0.000000  0.000000  1.000000 )  


     PseudoPot. # 1 for Fe read from file:
     ./pseudo/Fe.pbesol-spn-kjpaw_psl.0.2.1.UPF
     MD5 check sum: 4d7ec5aa2156491519a4322664fbbf52
     Pseudo is Projector augmented-wave + core cor, Zval = 16.0
     Generated using "atomic" code by A. Dal Corso  v.6.0 svn rev. 13079
     Shape of augmentation charge: PSQ
     Using radial grid of 1191 points,  6 beta functions with: 
                l(1) =   0
                l(2) =   0
                l(3) =   1
                l(4) =   1
                l(5) =   2
                l(6) =   2
     Q(r) pseudized with 0 coefficients 


     PseudoPot. # 2 for H  read from file:
     ./pseudo/H.pbesol-rrkjus_psl.1.0.0.UPF
     MD5 check sum: 0324ed591cc0147dc3d88cad0d33f665
     Pseudo is Ultrasoft, Zval =  1.0
     Generated using "atomic" code by A. Dal Corso  v.6.0 svn rev. 13079
     Using radial grid of  929 points,  2 beta functions with: 
                l(1) =   0
                l(2) =   0
     Q(r) pseudized with 0 coefficients 


     PseudoPot. # 3 for Mg read from file:
     ./pseudo/Mg.pbesol-n-kjpaw_psl.0.3.0.UPF
     MD5 check sum: a6c8d2ff726a5f7005dea00130d82930
     Pseudo is Projector augmented-wave + core cor, Zval =  2.0
     Generated using "atomic" code by A. Dal Corso  v.6.1 svn rev. 13369
     Shape of augmentation charge: PSQ
     Using radial grid of 1129 points,  4 beta functions with: 
                l(1) =   0
                l(2) =   0
                l(3) =   1
                l(4) =   1
     Q(r) pseudized with 0 coefficients 


     atomic species   valence    mass     pseudopotential
        Fe            16.00    55.84500     Fe( 1.00)
        H              1.00     1.00794     H ( 1.00)
        Mg             2.00    24.30500     Mg( 1.00)

     48 Sym. Ops., with inversion, found


                                    s                        frac. trans.

      isym =  1     identity                                     

 cryst.   s( 1) = (     1          0          0      )
                  (     0          1          0      )
                  (     0          0          1      )

 cart.    s( 1) = (  1.0000000  0.0000000  0.0000000 )
                  (  0.0000000  1.0000000  0.0000000 )
                  (  0.0000000  0.0000000  1.0000000 )


      isym =  2     180 deg rotation - cart. axis [0,0,1]        

 cryst.   s( 2) = (    -1          0          0      )
                  (     0         -1          0      )
                  (     0          0          1      )

 cart.    s( 2) = ( -1.0000000  0.0000000  0.0000000 )
                  (  0.0000000 -1.0000000  0.0000000 )
                  (  0.0000000  0.0000000  1.0000000 )


      isym =  3     180 deg rotation - cart. axis [0,1,0]        

 cryst.   s( 3) = (    -1          0          0      )
                  (     0          1          0      )
                  (     0          0         -1      )

 cart.    s( 3) = ( -1.0000000  0.0000000  0.0000000 )
                  (  0.0000000  1.0000000  0.0000000 )
                  (  0.0000000  0.0000000 -1.0000000 )


      isym =  4     180 deg rotation - cart. axis [1,0,0]        

 cryst.   s( 4) = (     1          0          0      )
                  (     0         -1          0      )
                  (     0          0         -1      )

 cart.    s( 4) = (  1.0000000  0.0000000  0.0000000 )
                  (  0.0000000 -1.0000000  0.0000000 )
                  (  0.0000000  0.0000000 -1.0000000 )


      isym =  5     180 deg rotation - cart. axis [1,1,0]        

 cryst.   s( 5) = (     0          1          0      )
                  (     1          0          0      )
                  (     0          0         -1      )

 cart.    s( 5) = (  0.0000000  1.0000000  0.0000000 )
                  (  1.0000000  0.0000000  0.0000000 )
                  (  0.0000000  0.0000000 -1.0000000 )


      isym =  6     180 deg rotation - cart. axis [1,-1,0]       

 cryst.   s( 6) = (     0         -1          0      )
                  (    -1          0          0      )
                  (     0          0         -1      )

 cart.    s( 6) = (  0.0000000 -1.0000000  0.0000000 )
                  ( -1.0000000  0.0000000  0.0000000 )
                  (  0.0000000  0.0000000 -1.0000000 )


      isym =  7      90 deg rotation - cart. axis [0,0,-1]       

 cryst.   s( 7) = (     0         -1          0      )
                  (     1          0          0      )
                  (     0          0          1      )

 cart.    s( 7) = (  0.0000000  1.0000000  0.0000000 )
                  ( -1.0000000  0.0000000  0.0000000 )
                  (  0.0000000  0.0000000  1.0000000 )


      isym =  8      90 deg rotation - cart. axis [0,0,1]        

 cryst.   s( 8) = (     0          1          0      )
                  (    -1          0          0      )
                  (     0          0          1      )

 cart.    s( 8) = (  0.0000000 -1.0000000  0.0000000 )
                  (  1.0000000  0.0000000  0.0000000 )
                  (  0.0000000  0.0000000  1.0000000 )


      isym =  9     180 deg rotation - cart. axis [1,0,1]        

 cryst.   s( 9) = (     0          0          1      )
                  (     0         -1          0      )
                  (     1          0          0      )

 cart.    s( 9) = (  0.0000000  0.0000000  1.0000000 )
                  (  0.0000000 -1.0000000  0.0000000 )
                  (  1.0000000  0.0000000  0.0000000 )


      isym = 10     180 deg rotation - cart. axis [-1,0,1]       

 cryst.   s(10) = (     0          0         -1      )
                  (     0         -1          0      )
                  (    -1          0          0      )

 cart.    s(10) = (  0.0000000  0.0000000 -1.0000000 )
                  (  0.0000000 -1.0000000  0.0000000 )
                  ( -1.0000000  0.0000000  0.0000000 )


      isym = 11      90 deg rotation - cart. axis [0,1,0]        

 cryst.   s(11) = (     0          0         -1      )
                  (     0          1          0      )
                  (     1          0          0      )

 cart.    s(11) = (  0.0000000  0.0000000  1.0000000 )
                  (  0.0000000  1.0000000  0.0000000 )
                  ( -1.0000000  0.0000000  0.0000000 )


      isym = 12      90 deg rotation - cart. axis [0,-1,0]       

 cryst.   s(12) = (     0          0          1      )
                  (     0          1          0      )
                  (    -1          0          0      )

 cart.    s(12) = (  0.0000000  0.0000000 -1.0000000 )
                  (  0.0000000  1.0000000  0.0000000 )
                  (  1.0000000  0.0000000  0.0000000 )


      isym = 13     180 deg rotation - cart. axis [0,1,1]        

 cryst.   s(13) = (    -1          0          0      )
                  (     0          0          1      )
                  (     0          1          0      )

 cart.    s(13) = ( -1.0000000  0.0000000  0.0000000 )
                  (  0.0000000  0.0000000  1.0000000 )
                  (  0.0000000  1.0000000  0.0000000 )


      isym = 14     180 deg rotation - cart. axis [0,1,-1]       

 cryst.   s(14) = (    -1          0          0      )
                  (     0          0         -1      )
                  (     0         -1          0      )

 cart.    s(14) = ( -1.0000000  0.0000000  0.0000000 )
                  (  0.0000000  0.0000000 -1.0000000 )
                  (  0.0000000 -1.0000000  0.0000000 )


      isym = 15      90 deg rotation - cart. axis [-1,0,0]       

 cryst.   s(15) = (     1          0          0      )
                  (     0          0         -1      )
                  (     0          1          0      )

 cart.    s(15) = (  1.0000000  0.0000000  0.0000000 )
                  (  0.0000000  0.0000000  1.0000000 )
                  (  0.0000000 -1.0000000  0.0000000 )


      isym = 16      90 deg rotation - cart. axis [1,0,0]        

 cryst.   s(16) = (     1          0          0      )
                  (     0          0          1      )
                  (     0         -1          0      )

 cart.    s(16) = (  1.0000000  0.0000000  0.0000000 )
                  (  0.0000000  0.0000000 -1.0000000 )
                  (  0.0000000  1.0000000  0.0000000 )


      isym = 17     120 deg rotation - cart. axis [-1,-1,-1]     

 cryst.   s(17) = (     0          0          1      )
                  (     1          0          0      )
                  (     0          1          0      )

 cart.    s(17) = (  0.0000000  1.0000000  0.0000000 )
                  (  0.0000000  0.0000000  1.0000000 )
                  (  1.0000000  0.0000000  0.0000000 )


      isym = 18     120 deg rotation - cart. axis [-1,1,1]       

 cryst.   s(18) = (     0          0         -1      )
                  (    -1          0          0      )
                  (     0          1          0      )

 cart.    s(18) = (  0.0000000 -1.0000000  0.0000000 )
                  (  0.0000000  0.0000000  1.0000000 )
                  ( -1.0000000  0.0000000  0.0000000 )


      isym = 19     120 deg rotation - cart. axis [1,1,-1]       

 cryst.   s(19) = (     0          0         -1      )
                  (     1          0          0      )
                  (     0         -1          0      )

 cart.    s(19) = (  0.0000000  1.0000000  0.0000000 )
                  (  0.0000000  0.0000000 -1.0000000 )
                  ( -1.0000000  0.0000000  0.0000000 )


      isym = 20     120 deg rotation - cart. axis [1,-1,1]       

 cryst.   s(20) = (     0          0          1      )
                  (    -1          0          0      )
                  (     0         -1          0      )

 cart.    s(20) = (  0.0000000 -1.0000000  0.0000000 )
                  (  0.0000000  0.0000000 -1.0000000 )
                  (  1.0000000  0.0000000  0.0000000 )


      isym = 21     120 deg rotation - cart. axis [1,1,1]        

 cryst.   s(21) = (     0          1          0      )
                  (     0          0          1      )
                  (     1          0          0      )

 cart.    s(21) = (  0.0000000  0.0000000  1.0000000 )
                  (  1.0000000  0.0000000  0.0000000 )
                  (  0.0000000  1.0000000  0.0000000 )


      isym = 22     120 deg rotation - cart. axis [-1,1,-1]      

 cryst.   s(22) = (     0         -1          0      )
                  (     0          0         -1      )
                  (     1          0          0      )

 cart.    s(22) = (  0.0000000  0.0000000  1.0000000 )
                  ( -1.0000000  0.0000000  0.0000000 )
                  (  0.0000000 -1.0000000  0.0000000 )


      isym = 23     120 deg rotation - cart. axis [1,-1,-1]      

 cryst.   s(23) = (     0         -1          0      )
                  (     0          0          1      )
                  (    -1          0          0      )

 cart.    s(23) = (  0.0000000  0.0000000 -1.0000000 )
                  ( -1.0000000  0.0000000  0.0000000 )
                  (  0.0000000  1.0000000  0.0000000 )


      isym = 24     120 deg rotation - cart. axis [-1,-1,1]      

 cryst.   s(24) = (     0          1          0      )
                  (     0          0         -1      )
                  (    -1          0          0      )

 cart.    s(24) = (  0.0000000  0.0000000 -1.0000000 )
                  (  1.0000000  0.0000000  0.0000000 )
                  (  0.0000000 -1.0000000  0.0000000 )


      isym = 25     inversion                                    

 cryst.   s(25) = (    -1          0          0      )
                  (     0         -1          0      )
                  (     0          0         -1      )

 cart.    s(25) = ( -1.0000000  0.0000000  0.0000000 )
                  (  0.0000000 -1.0000000  0.0000000 )
                  (  0.0000000  0.0000000 -1.0000000 )


      isym = 26     inv. 180 deg rotation - cart. axis [0,0,1]   

 cryst.   s(26) = (     1          0          0      )
                  (     0          1          0      )
                  (     0          0         -1      )

 cart.    s(26) = (  1.0000000  0.0000000  0.0000000 )
                  (  0.0000000  1.0000000  0.0000000 )
                  (  0.0000000  0.0000000 -1.0000000 )


      isym = 27     inv. 180 deg rotation - cart. axis [0,1,0]   

 cryst.   s(27) = (     1          0          0      )
                  (     0         -1          0      )
                  (     0          0          1      )

 cart.    s(27) = (  1.0000000  0.0000000  0.0000000 )
                  (  0.0000000 -1.0000000  0.0000000 )
                  (  0.0000000  0.0000000  1.0000000 )


      isym = 28     inv. 180 deg rotation - cart. axis [1,0,0]   

 cryst.   s(28) = (    -1          0          0      )
                  (     0          1          0      )
                  (     0          0          1      )

 cart.    s(28) = ( -1.0000000  0.0000000  0.0000000 )
                  (  0.0000000  1.0000000  0.0000000 )
                  (  0.0000000  0.0000000  1.0000000 )


      isym = 29     inv. 180 deg rotation - cart. axis [1,1,0]   

 cryst.   s(29) = (     0         -1          0      )
                  (    -1          0          0      )
                  (     0          0          1      )

 cart.    s(29) = (  0.0000000 -1.0000000  0.0000000 )
                  ( -1.0000000  0.0000000  0.0000000 )
                  (  0.0000000  0.0000000  1.0000000 )


      isym = 30     inv. 180 deg rotation - cart. axis [1,-1,0]  

 cryst.   s(30) = (     0          1          0      )
                  (     1          0          0      )
                  (     0          0          1      )

 cart.    s(30) = (  0.0000000  1.0000000  0.0000000 )
                  (  1.0000000  0.0000000  0.0000000 )
                  (  0.0000000  0.0000000  1.0000000 )


      isym = 31     inv.  90 deg rotation - cart. axis [0,0,-1]  

 cryst.   s(31) = (     0          1          0      )
                  (    -1          0          0      )
                  (     0          0         -1      )

 cart.    s(31) = (  0.0000000 -1.0000000  0.0000000 )
                  (  1.0000000  0.0000000  0.0000000 )
                  (  0.0000000  0.0000000 -1.0000000 )


      isym = 32     inv.  90 deg rotation - cart. axis [0,0,1]   

 cryst.   s(32) = (     0         -1          0      )
                  (     1          0          0      )
                  (     0          0         -1      )

 cart.    s(32) = (  0.0000000  1.0000000  0.0000000 )
                  ( -1.0000000  0.0000000  0.0000000 )
                  (  0.0000000  0.0000000 -1.0000000 )


      isym = 33     inv. 180 deg rotation - cart. axis [1,0,1]   

 cryst.   s(33) = (     0          0         -1      )
                  (     0          1          0      )
                  (    -1          0          0      )

 cart.    s(33) = (  0.0000000  0.0000000 -1.0000000 )
                  (  0.0000000  1.0000000  0.0000000 )
                  ( -1.0000000  0.0000000  0.0000000 )


      isym = 34     inv. 180 deg rotation - cart. axis [-1,0,1]  

 cryst.   s(34) = (     0          0          1      )
                  (     0          1          0      )
                  (     1          0          0      )

 cart.    s(34) = (  0.0000000  0.0000000  1.0000000 )
                  (  0.0000000  1.0000000  0.0000000 )
                  (  1.0000000  0.0000000  0.0000000 )


      isym = 35     inv.  90 deg rotation - cart. axis [0,1,0]   

 cryst.   s(35) = (     0          0          1      )
                  (     0         -1          0      )
                  (    -1          0          0      )

 cart.    s(35) = (  0.0000000  0.0000000 -1.0000000 )
                  (  0.0000000 -1.0000000  0.0000000 )
                  (  1.0000000  0.0000000  0.0000000 )


      isym = 36     inv.  90 deg rotation - cart. axis [0,-1,0]  

 cryst.   s(36) = (     0          0         -1      )
                  (     0         -1          0      )
                  (     1          0          0      )

 cart.    s(36) = (  0.0000000  0.0000000  1.0000000 )
                  (  0.0000000 -1.0000000  0.0000000 )
                  ( -1.0000000  0.0000000  0.0000000 )


      isym = 37     inv. 180 deg rotation - cart. axis [0,1,1]   

 cryst.   s(37) = (     1          0          0      )
                  (     0          0         -1      )
                  (     0         -1          0      )

 cart.    s(37) = (  1.0000000  0.0000000  0.0000000 )
                  (  0.0000000  0.0000000 -1.0000000 )
                  (  0.0000000 -1.0000000  0.0000000 )


      isym = 38     inv. 180 deg rotation - cart. axis [0,1,-1]  

 cryst.   s(38) = (     1          0          0      )
                  (     0          0          1      )
                  (     0          1          0      )

 cart.    s(38) = (  1.0000000  0.0000000  0.0000000 )
                  (  0.0000000  0.0000000  1.0000000 )
                  (  0.0000000  1.0000000  0.0000000 )


      isym = 39     inv.  90 deg rotation - cart. axis [-1,0,0]  

 cryst.   s(39) = (    -1          0          0      )
                  (     0          0          1      )
                  (     0         -1          0      )

 cart.    s(39) = ( -1.0000000  0.0000000  0.0000000 )
                  (  0.0000000  0.0000000 -1.0000000 )
                  (  0.0000000  1.0000000  0.0000000 )


      isym = 40     inv.  90 deg rotation - cart. axis [1,0,0]   

 cryst.   s(40) = (    -1          0          0      )
                  (     0          0         -1      )
                  (     0          1          0      )

 cart.    s(40) = ( -1.0000000  0.0000000  0.0000000 )
                  (  0.0000000  0.0000000  1.0000000 )
                  (  0.0000000 -1.0000000  0.0000000 )


      isym = 41     inv. 120 deg rotation - cart. axis [-1,-1,-1]

 cryst.   s(41) = (     0          0         -1      )
                  (    -1          0          0      )
                  (     0         -1          0      )

 cart.    s(41) = (  0.0000000 -1.0000000  0.0000000 )
                  (  0.0000000  0.0000000 -1.0000000 )
                  ( -1.0000000  0.0000000  0.0000000 )


      isym = 42     inv. 120 deg rotation - cart. axis [-1,1,1]  

 cryst.   s(42) = (     0          0          1      )
                  (     1          0          0      )
                  (     0         -1          0      )

 cart.    s(42) = (  0.0000000  1.0000000  0.0000000 )
                  (  0.0000000  0.0000000 -1.0000000 )
                  (  1.0000000  0.0000000  0.0000000 )


      isym = 43     inv. 120 deg rotation - cart. axis [1,1,-1]  

 cryst.   s(43) = (     0          0          1      )
                  (    -1          0          0      )
                  (     0          1          0      )

 cart.    s(43) = (  0.0000000 -1.0000000  0.0000000 )
                  (  0.0000000  0.0000000  1.0000000 )
                  (  1.0000000  0.0000000  0.0000000 )


      isym = 44     inv. 120 deg rotation - cart. axis [1,-1,1]  

 cryst.   s(44) = (     0          0         -1      )
                  (     1          0          0      )
                  (     0          1          0      )

 cart.    s(44) = (  0.0000000  1.0000000  0.0000000 )
                  (  0.0000000  0.0000000  1.0000000 )
                  ( -1.0000000  0.0000000  0.0000000 )


      isym = 45     inv. 120 deg rotation - cart. axis [1,1,1]   

 cryst.   s(45) = (     0         -1          0      )
                  (     0          0         -1      )
                  (    -1          0          0      )

 cart.    s(45) = (  0.0000000  0.0000000 -1.0000000 )
                  ( -1.0000000  0.0000000  0.0000000 )
                  (  0.0000000 -1.0000000  0.0000000 )


      isym = 46     inv. 120 deg rotation - cart. axis [-1,1,-1] 

 cryst.   s(46) = (     0          1          0      )
                  (     0          0          1      )
                  (    -1          0          0      )

 cart.    s(46) = (  0.0000000  0.0000000 -1.0000000 )
                  (  1.0000000  0.0000000  0.0000000 )
                  (  0.0000000  1.0000000  0.0000000 )


      isym = 47     inv. 120 deg rotation - cart. axis [1,-1,-1] 

 cryst.   s(47) = (     0          1          0      )
                  (     0          0         -1      )
                  (     1          0          0      )

 cart.    s(47) = (  0.0000000  0.0000000  1.0000000 )
                  (  1.0000000  0.0000000  0.0000000 )
                  (  0.0000000 -1.0000000  0.0000000 )


      isym = 48     inv. 120 deg rotation - cart. axis [-1,-1,1] 

 cryst.   s(48) = (     0         -1          0      )
                  (     0          0          1      )
                  (     1          0          0      )

 cart.    s(48) = (  0.0000000  0.0000000  1.0000000 )
                  ( -1.0000000  0.0000000  0.0000000 )
                  (  0.0000000  1.0000000  0.0000000 )


   Cartesian axes

     site n.     atom                  positions (alat units)
         1           Mg  tau(   1) = (   0.7500000   0.7500000   0.2500000  )
         2           Mg  tau(   2) = (   0.7500000   0.7500000   0.7500000  )
         3           Mg  tau(   3) = (   0.7500000   0.2500000   0.7500000  )
         4           Mg  tau(   4) = (   0.7500000   0.2500000   0.2500000  )
         5           Mg  tau(   5) = (   0.2500000   0.7500000   0.7500000  )
         6           Mg  tau(   6) = (   0.2500000   0.7500000   0.2500000  )
         7           Mg  tau(   7) = (   0.2500000   0.2500000   0.2500000  )
         8           Mg  tau(   8) = (   0.2500000   0.2500000   0.7500000  )
         9           Fe  tau(   9) = (   0.0000000   0.0000000   0.0000000  )
        10           Fe  tau(  10) = (   0.0000000   0.5000000   0.5000000  )
        11           Fe  tau(  11) = (   0.5000000   0.0000000   0.5000000  )
        12           Fe  tau(  12) = (   0.5000000   0.5000000   0.0000000  )
        13           H   tau(  13) = (   0.0000000   0.7570260   0.0000000  )
        14           H   tau(  14) = (   0.5000000   0.0000000   0.7429740  )
        15           H   tau(  15) = (   0.5000000   0.0000000   0.2570260  )
        16           H   tau(  16) = (   0.5000000   0.7429740   0.0000000  )
        17           H   tau(  17) = (   0.7570260   0.0000000   0.0000000  )
        18           H   tau(  18) = (   0.2429740   0.0000000   0.0000000  )
        19           H   tau(  19) = (   0.0000000   0.2570260   0.5000000  )
        20           H   tau(  20) = (   0.5000000   0.5000000   0.2429740  )
        21           H   tau(  21) = (   0.5000000   0.5000000   0.7570260  )
        22           H   tau(  22) = (   0.5000000   0.2429740   0.5000000  )
        23           H   tau(  23) = (   0.7570260   0.5000000   0.5000000  )
        24           H   tau(  24) = (   0.2429740   0.5000000   0.5000000  )
        25           H   tau(  25) = (   0.5000000   0.7570260   0.5000000  )
        26           H   tau(  26) = (   0.0000000   0.0000000   0.2429740  )
        27           H   tau(  27) = (   0.0000000   0.0000000   0.7570260  )
        28           H   tau(  28) = (   0.0000000   0.7429740   0.5000000  )
        29           H   tau(  29) = (   0.2570260   0.0000000   0.5000000  )
        30           H   tau(  30) = (   0.7429740   0.0000000   0.5000000  )
        31           H   tau(  31) = (   0.5000000   0.2570260   0.0000000  )
        32           H   tau(  32) = (   0.0000000   0.5000000   0.7429740  )
        33           H   tau(  33) = (   0.0000000   0.5000000   0.2570260  )
        34           H   tau(  34) = (   0.0000000   0.2429740   0.0000000  )
        35           H   tau(  35) = (   0.2570260   0.5000000   0.0000000  )
        36           H   tau(  36) = (   0.7429740   0.5000000   0.0000000  )

   Crystallographic axes

     site n.     atom                  positions (cryst. coord.)
         1           Mg  tau(   1) = (  0.7500000  0.7500000  0.2500000  )
         2           Mg  tau(   2) = (  0.7500000  0.7500000  0.7500000  )
         3           Mg  tau(   3) = (  0.7500000  0.2500000  0.7500000  )
         4           Mg  tau(   4) = (  0.7500000  0.2500000  0.2500000  )
         5           Mg  tau(   5) = (  0.2500000  0.7500000  0.7500000  )
         6           Mg  tau(   6) = (  0.2500000  0.7500000  0.2500000  )
         7           Mg  tau(   7) = (  0.2500000  0.2500000  0.2500000  )
         8           Mg  tau(   8) = (  0.2500000  0.2500000  0.7500000  )
         9           Fe  tau(   9) = (  0.0000000  0.0000000  0.0000000  )
        10           Fe  tau(  10) = (  0.0000000  0.5000000  0.5000000  )
        11           Fe  tau(  11) = (  0.5000000  0.0000000  0.5000000  )
        12           Fe  tau(  12) = (  0.5000000  0.5000000  0.0000000  )
        13           H   tau(  13) = (  0.0000000  0.7570260  0.0000000  )
        14           H   tau(  14) = (  0.5000000  0.0000000  0.7429740  )
        15           H   tau(  15) = (  0.5000000  0.0000000  0.2570260  )
        16           H   tau(  16) = (  0.5000000  0.7429740  0.0000000  )
        17           H   tau(  17) = (  0.7570260  0.0000000  0.0000000  )
        18           H   tau(  18) = (  0.2429740  0.0000000  0.0000000  )
        19           H   tau(  19) = (  0.0000000  0.2570260  0.5000000  )
        20           H   tau(  20) = (  0.5000000  0.5000000  0.2429740  )
        21           H   tau(  21) = (  0.5000000  0.5000000  0.7570260  )
        22           H   tau(  22) = (  0.5000000  0.2429740  0.5000000  )
        23           H   tau(  23) = (  0.7570260  0.5000000  0.5000000  )
        24           H   tau(  24) = (  0.2429740  0.5000000  0.5000000  )
        25           H   tau(  25) = (  0.5000000  0.7570260  0.5000000  )
        26           H   tau(  26) = (  0.0000000  0.0000000  0.2429740  )
        27           H   tau(  27) = (  0.0000000  0.0000000  0.7570260  )
        28           H   tau(  28) = (  0.0000000  0.7429740  0.5000000  )
        29           H   tau(  29) = (  0.2570260  0.0000000  0.5000000  )
        30           H   tau(  30) = (  0.7429740  0.0000000  0.5000000  )
        31           H   tau(  31) = (  0.5000000  0.2570260  0.0000000  )
        32           H   tau(  32) = (  0.0000000  0.5000000  0.7429740  )
        33           H   tau(  33) = (  0.0000000  0.5000000  0.2570260  )
        34           H   tau(  34) = (  0.0000000  0.2429740  0.0000000  )
        35           H   tau(  35) = (  0.2570260  0.5000000  0.0000000  )
        36           H   tau(  36) = (  0.7429740  0.5000000  0.0000000  )

     number of k points=    35  Gaussian smearing, width (Ry)=  0.0200
                       cart. coord. in units 2pi/alat
        k(    1) = (   0.0000000   0.0000000   0.0000000), wk =   0.0039062
        k(    2) = (   0.0000000   0.0000000   0.1250000), wk =   0.0234375
        k(    3) = (   0.0000000   0.0000000   0.2500000), wk =   0.0234375
        k(    4) = (   0.0000000   0.0000000   0.3750000), wk =   0.0234375
        k(    5) = (   0.0000000   0.0000000  -0.5000000), wk =   0.0117188
        k(    6) = (   0.0000000   0.1250000   0.1250000), wk =   0.0468750
        k(    7) = (   0.0000000   0.1250000   0.2500000), wk =   0.0937500
        k(    8) = (   0.0000000   0.1250000   0.3750000), wk =   0.0937500
        k(    9) = (   0.0000000   0.1250000  -0.5000000), wk =   0.0468750
        k(   10) = (   0.0000000   0.2500000   0.2500000), wk =   0.0468750
        k(   11) = (   0.0000000   0.2500000   0.3750000), wk =   0.0937500
        k(   12) = (   0.0000000   0.2500000  -0.5000000), wk =   0.0468750
        k(   13) = (   0.0000000   0.3750000   0.3750000), wk =   0.0468750
        k(   14) = (   0.0000000   0.3750000  -0.5000000), wk =   0.0468750
        k(   15) = (   0.0000000  -0.5000000  -0.5000000), wk =   0.0117188
        k(   16) = (   0.1250000   0.1250000   0.1250000), wk =   0.0312500
        k(   17) = (   0.1250000   0.1250000   0.2500000), wk =   0.0937500
        k(   18) = (   0.1250000   0.1250000   0.3750000), wk =   0.0937500
        k(   19) = (   0.1250000   0.1250000  -0.5000000), wk =   0.0468750
        k(   20) = (   0.1250000   0.2500000   0.2500000), wk =   0.0937500
        k(   21) = (   0.1250000   0.2500000   0.3750000), wk =   0.1875000
        k(   22) = (   0.1250000   0.2500000  -0.5000000), wk =   0.0937500
        k(   23) = (   0.1250000   0.3750000   0.3750000), wk =   0.0937500
        k(   24) = (   0.1250000   0.3750000  -0.5000000), wk =   0.0937500
        k(   25) = (   0.1250000  -0.5000000  -0.5000000), wk =   0.0234375
        k(   26) = (   0.2500000   0.2500000   0.2500000), wk =   0.0312500
        k(   27) = (   0.2500000   0.2500000   0.3750000), wk =   0.0937500
        k(   28) = (   0.2500000   0.2500000  -0.5000000), wk =   0.0468750
        k(   29) = (   0.2500000   0.3750000   0.3750000), wk =   0.0937500
        k(   30) = (   0.2500000   0.3750000  -0.5000000), wk =   0.0937500
        k(   31) = (   0.2500000  -0.5000000  -0.5000000), wk =   0.0234375
        k(   32) = (   0.3750000   0.3750000   0.3750000), wk =   0.0312500
        k(   33) = (   0.3750000   0.3750000  -0.5000000), wk =   0.0468750
        k(   34) = (   0.3750000  -0.5000000  -0.5000000), wk =   0.0234375
        k(   35) = (  -0.5000000  -0.5000000  -0.5000000), wk =   0.0039062

                       cryst. coord.
        k(    1) = (   0.0000000   0.0000000   0.0000000), wk =   0.0039062
        k(    2) = (   0.0000000   0.0000000   0.1250000), wk =   0.0234375
        k(    3) = (   0.0000000   0.0000000   0.2500000), wk =   0.0234375
        k(    4) = (   0.0000000   0.0000000   0.3750000), wk =   0.0234375
        k(    5) = (   0.0000000   0.0000000  -0.5000000), wk =   0.0117188
        k(    6) = (   0.0000000   0.1250000   0.1250000), wk =   0.0468750
        k(    7) = (   0.0000000   0.1250000   0.2500000), wk =   0.0937500
        k(    8) = (   0.0000000   0.1250000   0.3750000), wk =   0.0937500
        k(    9) = (   0.0000000   0.1250000  -0.5000000), wk =   0.0468750
        k(   10) = (   0.0000000   0.2500000   0.2500000), wk =   0.0468750
        k(   11) = (   0.0000000   0.2500000   0.3750000), wk =   0.0937500
        k(   12) = (   0.0000000   0.2500000  -0.5000000), wk =   0.0468750
        k(   13) = (   0.0000000   0.3750000   0.3750000), wk =   0.0468750
        k(   14) = (   0.0000000   0.3750000  -0.5000000), wk =   0.0468750
        k(   15) = (   0.0000000  -0.5000000  -0.5000000), wk =   0.0117188
        k(   16) = (   0.1250000   0.1250000   0.1250000), wk =   0.0312500
        k(   17) = (   0.1250000   0.1250000   0.2500000), wk =   0.0937500
        k(   18) = (   0.1250000   0.1250000   0.3750000), wk =   0.0937500
        k(   19) = (   0.1250000   0.1250000  -0.5000000), wk =   0.0468750
        k(   20) = (   0.1250000   0.2500000   0.2500000), wk =   0.0937500
        k(   21) = (   0.1250000   0.2500000   0.3750000), wk =   0.1875000
        k(   22) = (   0.1250000   0.2500000  -0.5000000), wk =   0.0937500
        k(   23) = (   0.1250000   0.3750000   0.3750000), wk =   0.0937500
        k(   24) = (   0.1250000   0.3750000  -0.5000000), wk =   0.0937500
        k(   25) = (   0.1250000  -0.5000000  -0.5000000), wk =   0.0234375
        k(   26) = (   0.2500000   0.2500000   0.2500000), wk =   0.0312500
        k(   27) = (   0.2500000   0.2500000   0.3750000), wk =   0.0937500
        k(   28) = (   0.2500000   0.2500000  -0.5000000), wk =   0.0468750
        k(   29) = (   0.2500000   0.3750000   0.3750000), wk =   0.0937500
        k(   30) = (   0.2500000   0.3750000  -0.5000000), wk =   0.0937500
        k(   31) = (   0.2500000  -0.5000000  -0.5000000), wk =   0.0234375
        k(   32) = (   0.3750000   0.3750000   0.3750000), wk =   0.0312500
        k(   33) = (   0.3750000   0.3750000  -0.5000000), wk =   0.0468750
        k(   34) = (   0.3750000  -0.5000000  -0.5000000), wk =   0.0234375
        k(   35) = (  -0.5000000  -0.5000000  -0.5000000), wk =   0.0039062

     Dense  grid:  1038085 G-vectors     FFT dimensions: ( 125, 125, 125)

     Smooth grid:   199949 G-vectors     FFT dimensions: (  75,  75,  75)

     Dynamical RAM for                 wfc:       0.74 MB

     Dynamical RAM for     wfc (w. buffer):      14.02 MB

     Dynamical RAM for           str. fact:       1.49 MB

     Dynamical RAM for           local pot:       0.00 MB

     Dynamical RAM for          nlocal pot:       2.19 MB

     Dynamical RAM for                qrad:       7.91 MB

     Dynamical RAM for          rho,v,vnew:       2.92 MB

     Dynamical RAM for               rhoin:       0.97 MB

     Dynamical RAM for            rho*nmix:       7.92 MB

     Dynamical RAM for           G-vectors:       1.90 MB

     Dynamical RAM for          h,s,v(r/c):       0.70 MB

     Dynamical RAM for          <psi|beta>:       0.17 MB

     Dynamical RAM for                 psi:       1.48 MB

     Dynamical RAM for                hpsi:       1.48 MB

     Dynamical RAM for                spsi:       1.48 MB

     Dynamical RAM for      wfcinit/wfcrot:       2.84 MB

     Dynamical RAM for           addusdens:      52.23 MB

     Dynamical RAM for          addusforce:      63.70 MB

     Dynamical RAM for         addusstress:      49.87 MB

     Estimated static dynamical RAM per process >      35.76 MB

     Estimated max dynamical RAM per process >     107.38 MB

     Estimated total dynamical RAM >       6.46 GB

     Check: negative core charge=   -0.000001

     Initial potential from superposition of free atoms

     starting charge     103.9909, renormalised to     104.0000
     Starting wfcs are  108 randomized atomic wfcs
     Checking if some PAW data can be deallocated... 
       PAW data deallocated on   56 nodes for type:  1
       PAW data deallocated on   48 nodes for type:  3

     total cpu time spent up to now is        3.3 secs

     Self-consistent Calculation

     iteration #  1     ecut=    90.00 Ry     beta= 0.40
     Davidson diagonalization with overlap

---- Real-time Memory Report at c_bands before calling an iterative solver
           120 MiB given to the printing process from OS
             0 MiB allocation reported by mallinfo(arena+hblkhd)
        231200 MiB available memory on the node where the printing process lives
------------------
     ethr =  1.00E-02,  avg # of iterations =  2.0

     total cpu time spent up to now is        7.4 secs

     total energy              =   -1596.63391984 Ry
     estimated scf accuracy    <       4.50869974 Ry

     iteration #  2     ecut=    90.00 Ry     beta= 0.40
     Davidson diagonalization with overlap

---- Real-time Memory Report at c_bands before calling an iterative solver
           155 MiB given to the printing process from OS
             0 MiB allocation reported by mallinfo(arena+hblkhd)
        230282 MiB available memory on the node where the printing process lives
------------------
     ethr =  4.34E-03,  avg # of iterations =  4.5

     total cpu time spent up to now is       12.1 secs

     total energy              =   -1596.04358188 Ry
     estimated scf accuracy    <      18.38519855 Ry

     iteration #  3     ecut=    90.00 Ry     beta= 0.40
     Davidson diagonalization with overlap

---- Real-time Memory Report at c_bands before calling an iterative solver
           158 MiB given to the printing process from OS
             0 MiB allocation reported by mallinfo(arena+hblkhd)
        230241 MiB available memory on the node where the printing process lives
------------------
     ethr =  4.34E-03,  avg # of iterations =  4.0

     total cpu time spent up to now is       16.3 secs

     total energy              =   -1597.88874919 Ry
     estimated scf accuracy    <       0.46181529 Ry

     iteration #  4     ecut=    90.00 Ry     beta= 0.40
     Davidson diagonalization with overlap

---- Real-time Memory Report at c_bands before calling an iterative solver
           159 MiB given to the printing process from OS
             0 MiB allocation reported by mallinfo(arena+hblkhd)
        230242 MiB available memory on the node where the printing process lives
------------------
     ethr =  4.44E-04,  avg # of iterations =  2.7

     total cpu time spent up to now is       20.4 secs

     total energy              =   -1597.97257070 Ry
     estimated scf accuracy    <       0.03112035 Ry

     iteration #  5     ecut=    90.00 Ry     beta= 0.40
     Davidson diagonalization with overlap

---- Real-time Memory Report at c_bands before calling an iterative solver
           160 MiB given to the printing process from OS
             0 MiB allocation reported by mallinfo(arena+hblkhd)
        230236 MiB available memory on the node where the printing process lives
------------------
     ethr =  2.99E-05,  avg # of iterations =  4.6

     total cpu time spent up to now is       25.3 secs

     total energy              =   -1597.98144191 Ry
     estimated scf accuracy    <       0.00245373 Ry

     iteration #  6     ecut=    90.00 Ry     beta= 0.40
     Davidson diagonalization with overlap

---- Real-time Memory Report at c_bands before calling an iterative solver
           160 MiB given to the printing process from OS
             0 MiB allocation reported by mallinfo(arena+hblkhd)
        230234 MiB available memory on the node where the printing process lives
------------------
     ethr =  2.36E-06,  avg # of iterations =  5.6

     total cpu time spent up to now is       30.8 secs

     total energy              =   -1597.98202618 Ry
     estimated scf accuracy    <       0.00098319 Ry

     iteration #  7     ecut=    90.00 Ry     beta= 0.40
     Davidson diagonalization with overlap

---- Real-time Memory Report at c_bands before calling an iterative solver
           161 MiB given to the printing process from OS
             0 MiB allocation reported by mallinfo(arena+hblkhd)
        230231 MiB available memory on the node where the printing process lives
------------------
     ethr =  9.45E-07,  avg # of iterations =  3.5

     total cpu time spent up to now is       35.2 secs

     total energy              =   -1597.98207112 Ry
     estimated scf accuracy    <       0.00190998 Ry

     iteration #  8     ecut=    90.00 Ry     beta= 0.40
     Davidson diagonalization with overlap

---- Real-time Memory Report at c_bands before calling an iterative solver
           161 MiB given to the printing process from OS
             0 MiB allocation reported by mallinfo(arena+hblkhd)
        230224 MiB available memory on the node where the printing process lives
------------------
     ethr =  9.45E-07,  avg # of iterations =  2.5

     total cpu time spent up to now is       38.8 secs

     total energy              =   -1597.98222233 Ry
     estimated scf accuracy    <       0.00008866 Ry

     iteration #  9     ecut=    90.00 Ry     beta= 0.40
     Davidson diagonalization with overlap

---- Real-time Memory Report at c_bands before calling an iterative solver
           162 MiB given to the printing process from OS
             0 MiB allocation reported by mallinfo(arena+hblkhd)
        230217 MiB available memory on the node where the printing process lives
------------------
     ethr =  8.53E-08,  avg # of iterations =  5.0

     total cpu time spent up to now is       43.8 secs

     total energy              =   -1597.98224807 Ry
     estimated scf accuracy    <       0.00005404 Ry

     iteration # 10     ecut=    90.00 Ry     beta= 0.40
     Davidson diagonalization with overlap

---- Real-time Memory Report at c_bands before calling an iterative solver
           162 MiB given to the printing process from OS
             0 MiB allocation reported by mallinfo(arena+hblkhd)
        230192 MiB available memory on the node where the printing process lives
------------------
     ethr =  5.20E-08,  avg # of iterations =  1.1

     total cpu time spent up to now is       47.0 secs

     total energy              =   -1597.98224230 Ry
     estimated scf accuracy    <       0.00002280 Ry

     iteration # 11     ecut=    90.00 Ry     beta= 0.40
     Davidson diagonalization with overlap

---- Real-time Memory Report at c_bands before calling an iterative solver
           163 MiB given to the printing process from OS
             0 MiB allocation reported by mallinfo(arena+hblkhd)
        230173 MiB available memory on the node where the printing process lives
------------------
     ethr =  2.19E-08,  avg # of iterations =  3.0

     total cpu time spent up to now is       51.0 secs

     total energy              =   -1597.98224678 Ry
     estimated scf accuracy    <       0.00000548 Ry

     iteration # 12     ecut=    90.00 Ry     beta= 0.40
     Davidson diagonalization with overlap

---- Real-time Memory Report at c_bands before calling an iterative solver
           163 MiB given to the printing process from OS
             0 MiB allocation reported by mallinfo(arena+hblkhd)
        230135 MiB available memory on the node where the printing process lives
------------------
     ethr =  5.27E-09,  avg # of iterations =  4.9

     total cpu time spent up to now is       55.5 secs

     total energy              =   -1597.98224793 Ry
     estimated scf accuracy    <       0.00000141 Ry

     iteration # 13     ecut=    90.00 Ry     beta= 0.40
     Davidson diagonalization with overlap

---- Real-time Memory Report at c_bands before calling an iterative solver
           163 MiB given to the printing process from OS
             0 MiB allocation reported by mallinfo(arena+hblkhd)
        230138 MiB available memory on the node where the printing process lives
------------------
     ethr =  1.36E-09,  avg # of iterations =  3.7

     total cpu time spent up to now is       59.7 secs

     total energy              =   -1597.98224818 Ry
     estimated scf accuracy    <       0.00000003 Ry

     iteration # 14     ecut=    90.00 Ry     beta= 0.40
     Davidson diagonalization with overlap

---- Real-time Memory Report at c_bands before calling an iterative solver
           163 MiB given to the printing process from OS
             0 MiB allocation reported by mallinfo(arena+hblkhd)
        230139 MiB available memory on the node where the printing process lives
------------------
     ethr =  3.02E-11,  avg # of iterations =  8.5

     total cpu time spent up to now is       68.0 secs

     total energy              =   -1597.98224825 Ry
     estimated scf accuracy    <          7.7E-09 Ry

     iteration # 15     ecut=    90.00 Ry     beta= 0.40
     Davidson diagonalization with overlap

---- Real-time Memory Report at c_bands before calling an iterative solver
           164 MiB given to the printing process from OS
             0 MiB allocation reported by mallinfo(arena+hblkhd)
        230147 MiB available memory on the node where the printing process lives
------------------
     ethr =  7.37E-12,  avg # of iterations =  3.9

     total cpu time spent up to now is       72.1 secs

     End of self-consistent calculation

          k = 0.0000 0.0000 0.0000 ( 24885 PWs)   bands (ev):

   -79.7364 -79.7363 -79.7363 -79.7362 -45.9840 -45.9840 -45.9840 -45.9838
   -45.9838 -45.9838 -45.9837 -45.9837 -45.9837 -45.9836 -45.9836 -45.9836
    -4.1007  -1.4713  -1.4713  -1.4712   0.0615   0.0615   0.0615   0.9923
     0.9923   0.9923   1.8993   1.8993   1.8993   1.8993   1.8993   1.8993
     2.2235   2.2235   2.6062   2.6062   2.6062   3.3349   3.3349   3.3349
     4.0625   4.0625   4.0625   4.7280   4.7280   4.7280   5.5055   5.5055
     5.5055   5.5055   5.5055   5.5055   7.3168   7.3169   7.3169   9.3097
     9.3097   9.3097  10.8012  10.8012  10.8013  10.8974

     occupation numbers 
     1.0000   1.0000   1.0000   1.0000   1.0000   1.0000   1.0000   1.0000
     1.0000   1.0000   1.0000   1.0000   1.0000   1.0000   1.0000   1.0000
     1.0000   1.0000   1.0000   1.0000   1.0000   1.0000   1.0000   1.0000
     1.0000   1.0000   1.0000   1.0000   1.0000   1.0000   1.0000   1.0000
     1.0000   1.0000   1.0000   1.0000   1.0000   1.0000   1.0000   1.0000
     1.0000   1.0000   1.0000   1.0000   1.0000   1.0000   1.0000   1.0000
     1.0000   1.0000   1.0000   1.0000   0.0000   0.0000   0.0000   0.0000
     0.0000   0.0000   0.0000   0.0000   0.0000   0.0000

          k = 0.0000 0.0000 0.1250 ( 25045 PWs)   bands (ev):

   -79.7364 -79.7364 -79.7364 -79.7363 -45.9840 -45.9840 -45.9840 -45.9838
   -45.9838 -45.9838 -45.9837 -45.9837 -45.9837 -45.9836 -45.9836 -45.9836
    -4.0456  -1.7429  -1.4219  -1.4219   0.1057   0.1057   0.3111   0.7451
     0.7451   1.1029   1.7629   1.7629   1.9341   1.9341   2.0264   2.0264
     2.1360   2.2373   2.5908   2.7010   2.7010   3.2288   3.2288   3.3178
     4.0865   4.1997   4.1997   4.7015   4.8137   4.8137   5.4867   5.4867
     5.4977   5.4977   5.5055   5.5055   7.3392   7.4096   7.4096   9.3338
     9.3900   9.3900  10.3661  10.6360  10.8961  10.9181

     occupation numbers 
     1.0000   1.0000   1.0000   1.0000   1.0000   1.0000   1.0000   1.0000
     1.0000   1.0000   1.0000   1.0000   1.0000   1.0000   1.0000   1.0000
     1.0000   1.0000   1.0000   1.0000   1.0000   1.0000   1.0000   1.0000
     1.0000   1.0000   1.0000   1.0000   1.0000   1.0000   1.0000   1.0000
     1.0000   1.0000   1.0000   1.0000   1.0000   1.0000   1.0000   1.0000
     1.0000   1.0000   1.0000   1.0000   1.0000   1.0000   1.0000   1.0000
     1.0000   1.0000   1.0000   1.0000   0.0000   0.0000   0.0000   0.0000
     0.0000   0.0000   0.0000   0.0000   0.0000   0.0000

          k = 0.0000 0.0000 0.2500 ( 24972 PWs)   bands (ev):

   -79.7364 -79.7364 -79.7364 -79.7363 -45.9839 -45.9839 -45.9839 -45.9838
   -45.9838 -45.9838 -45.9837 -45.9837 -45.9837 -45.9836 -45.9836 -45.9836
    -3.8814  -2.2601  -1.2774  -1.2773   0.2369   0.2369   0.2893   0.2893
     0.6969   1.4464   1.4464   1.4834   1.9106   2.0376   2.0376   2.1490
     2.1491   2.2768   2.5473   2.9454   2.9454   2.9832   2.9832   3.2306
     4.1554   4.5101   4.5101   4.6263   4.9978   4.9978   5.4256   5.4256
     5.4713   5.4713   5.5056   5.5056   7.4236   7.6906   7.6906   9.4079
     9.4494   9.6410   9.6410  10.3082  10.9433  10.9438

     occupation numbers 
     1.0000   1.0000   1.0000   1.0000   1.0000   1.0000   1.0000   1.0000
     1.0000   1.0000   1.0000   1.0000   1.0000   1.0000   1.0000   1.0000
     1.0000   1.0000   1.0000   1.0000   1.0000   1.0000   1.0000   1.0000
     1.0000   1.0000   1.0000   1.0000   1.0000   1.0000   1.0000   1.0000
     1.0000   1.0000   1.0000   1.0000   1.0000   1.0000   1.0000   1.0000
     1.0000   1.0000   1.0000   1.0000   1.0000   1.0000   1.0000   1.0000
     1.0000   1.0000   1.0000   1.0000   0.0000   0.0000   0.0000   0.0000
     0.0000   0.0000   0.0000   0.0000   0.0000   0.0000

          k = 0.0000 0.0000 0.3750 ( 24964 PWs)   bands (ev):

   -79.7364 -79.7364 -79.7364 -79.7363 -45.9839 -45.9839 -45.9839 -45.9838
   -45.9838 -45.9838 -45.9838 -45.9837 -45.9837 -45.9837 -45.9836 -45.9836
    -3.6111  -2.7824  -1.0550  -1.0550  -0.1541  -0.1541   0.4506   0.4506
     1.0055   1.0809   1.0809   1.6158   2.0562   2.1947   2.1947   2.2057
     2.2057   2.3370   2.4833   2.6990   2.6990   3.0064   3.1729   3.1729
     4.2603   4.5152   4.8432   4.8432   5.1823   5.1823   5.3083   5.3083
     5.4175   5.4175   5.5056   5.5057   7.6206   8.1331   8.1331   8.6161
     9.5373   9.9886  10.0844  10.0844  10.1378  10.1378

     occupation numbers 
     1.0000   1.0000   1.0000   1.0000   1.0000   1.0000   1.0000   1.0000
     1.0000   1.0000   1.0000   1.0000   1.0000   1.0000   1.0000   1.0000
     1.0000   1.0000   1.0000   1.0000   1.0000   1.0000   1.0000   1.0000
     1.0000   1.0000   1.0000   1.0000   1.0000   1.0000   1.0000   1.0000
     1.0000   1.0000   1.0000   1.0000   1.0000   1.0000   1.0000   1.0000
     1.0000   1.0000   1.0000   1.0000   1.0000   1.0000   1.0000   1.0000
     1.0000   1.0000   1.0000   1.0000   0.0000   0.0000   0.0000   0.0000
     0.0000   0.0000   0.0000   0.0000   0.0000   0.0000

          k = 0.0000 0.0000-0.5000 ( 24964 PWs)   bands (ev):

   -79.7364 -79.7364 -79.7364 -79.7363 -45.9839 -45.9839 -45.9838 -45.9838
   -45.9838 -45.9838 -45.9838 -45.9837 -45.9837 -45.9837 -45.9836 -45.9836
    -3.2409  -3.2409  -0.8809  -0.8809  -0.4058  -0.4058   0.7376   0.7376
     0.7376   0.7376   1.3052   1.3052   2.2059   2.2059   2.4093   2.4093
     2.4309   2.4309   2.4309   2.4309   2.6052   2.6053   3.2597   3.2597
     4.3864   4.3864   5.1171   5.1171   5.1171   5.1171   5.3243   5.3243
     5.3243   5.3243   5.5057   5.5057   8.0005   8.0005   8.4619   8.4620
     9.6707   9.6707   9.7291   9.7292  10.7304  10.7305

     occupation numbers 
     1.0000   1.0000   1.0000   1.0000   1.0000   1.0000   1.0000   1.0000
     1.0000   1.0000   1.0000   1.0000   1.0000   1.0000   1.0000   1.0000
     1.0000   1.0000   1.0000   1.0000   1.0000   1.0000   1.0000   1.0000
     1.0000   1.0000   1.0000   1.0000   1.0000   1.0000   1.0000   1.0000
     1.0000   1.0000   1.0000   1.0000   1.0000   1.0000   1.0000   1.0000
     1.0000   1.0000   1.0000   1.0000   1.0000   1.0000   1.0000   1.0000
     1.0000   1.0000   1.0000   1.0000   0.0000   0.0000   0.0000   0.0000
     0.0000   0.0000   0.0000   0.0000   0.0000   0.0000

          k = 0.0000 0.1250 0.1250 ( 25017 PWs)   bands (ev):

   -79.7364 -79.7364 -79.7364 -79.7363 -45.9840 -45.9840 -45.9840 -45.9838
   -45.9838 -45.9838 -45.9837 -45.9837 -45.9837 -45.9836 -45.9836 -45.9836
    -3.9907  -1.6930  -1.6930  -1.3740   0.1497   0.3476   0.3476   0.5023
     0.8470   0.8470   1.7988   1.7988   1.8129   2.0205   2.0678   2.0678
     2.1127   2.1852   2.6930   2.6931   2.7683   2.9919   3.1220   3.4739
     4.2218   4.2218   4.3091   4.7617   4.8158   4.8690   5.4793   5.4794
     5.4816   5.4927   5.4974   5.4974   7.4304   7.4304   7.4899   9.4148
     9.4148   9.4805  10.2533  10.5909  10.6305  10.8489

     occupation numbers 
     1.0000   1.0000   1.0000   1.0000   1.0000   1.0000   1.0000   1.0000
     1.0000   1.0000   1.0000   1.0000   1.0000   1.0000   1.0000   1.0000
     1.0000   1.0000   1.0000   1.0000   1.0000   1.0000   1.0000   1.0000
     1.0000   1.0000   1.0000   1.0000   1.0000   1.0000   1.0000   1.0000
     1.0000   1.0000   1.0000   1.0000   1.0000   1.0000   1.0000   1.0000
     1.0000   1.0000   1.0000   1.0000   1.0000   1.0000   1.0000   1.0000
     1.0000   1.0000   1.0000   1.0000   0.0000   0.0000   0.0000   0.0000
     0.0000   0.0000   0.0000   0.0000   0.0000   0.0000

          k = 0.0000 0.1250 0.2500 ( 24942 PWs)   bands (ev):

   -79.7364 -79.7364 -79.7364 -79.7363 -45.9839 -45.9839 -45.9839 -45.9838
   -45.9838 -45.9838 -45.9837 -45.9837 -45.9837 -45.9837 -45.9836 -45.9836
    -3.8267  -2.2089  -1.5457  -1.2360   0.0506   0.2805   0.3166   0.5344
     0.6843   1.2130   1.4843   1.5965   1.9051   1.9060   2.1403   2.1742
     2.1826   2.1953   2.6828   2.7277   2.8730   2.9561   2.9776   3.5050
     4.2850   4.5275   4.5664   4.7124   4.9843   5.0103   5.4192   5.4254
     5.4540   5.4699   5.4903   5.4965   7.5100   7.7057   7.7325   9.4793
     9.4910   9.6679   9.7596  10.3763  10.5711  10.8331

     occupation numbers 
     1.0000   1.0000   1.0000   1.0000   1.0000   1.0000   1.0000   1.0000
     1.0000   1.0000   1.0000   1.0000   1.0000   1.0000   1.0000   1.0000
     1.0000   1.0000   1.0000   1.0000   1.0000   1.0000   1.0000   1.0000
     1.0000   1.0000   1.0000   1.0000   1.0000   1.0000   1.0000   1.0000
     1.0000   1.0000   1.0000   1.0000   1.0000   1.0000   1.0000   1.0000
     1.0000   1.0000   1.0000   1.0000   1.0000   1.0000   1.0000   1.0000
     1.0000   1.0000   1.0000   1.0000   0.0000   0.0000   0.0000   0.0000
     0.0000   0.0000   0.0000   0.0000   0.0000   0.0000

          k = 0.0000 0.1250 0.3750 ( 24938 PWs)   bands (ev):

   -79.7364 -79.7364 -79.7364 -79.7362 -45.9839 -45.9839 -45.9839 -45.9838
   -45.9838 -45.9838 -45.9837 -45.9837 -45.9837 -45.9837 -45.9836 -45.9836
    -3.5569  -2.7299  -1.3125  -1.0459  -0.3650  -0.1061   0.4933   0.7015
     0.9591   1.1207   1.2783   1.5919   1.6671   2.0778   2.1445   2.2035
     2.2195   2.3717   2.5318   2.5832   2.7531   3.1963   3.1999   3.3483
     4.3810   4.6129   4.8551   4.8602   5.1721   5.1750   5.3037   5.3110
     5.4018   5.4142   5.4916   5.4951   7.6987   8.1188   8.1336   8.6694
     9.6229  10.0338  10.0725  10.0946  10.1137  10.2393

     occupation numbers 
     1.0000   1.0000   1.0000   1.0000   1.0000   1.0000   1.0000   1.0000
     1.0000   1.0000   1.0000   1.0000   1.0000   1.0000   1.0000   1.0000
     1.0000   1.0000   1.0000   1.0000   1.0000   1.0000   1.0000   1.0000
     1.0000   1.0000   1.0000   1.0000   1.0000   1.0000   1.0000   1.0000
     1.0000   1.0000   1.0000   1.0000   1.0000   1.0000   1.0000   1.0000
     1.0000   1.0000   1.0000   1.0000   1.0000   1.0000   1.0000   1.0000
     1.0000   1.0000   1.0000   1.0000   0.0000   0.0000   0.0000   0.0000
     0.0000   0.0000   0.0000   0.0000   0.0000   0.0000

          k = 0.0000 0.1250-0.5000 ( 24970 PWs)   bands (ev):

   -79.7364 -79.7364 -79.7364 -79.7363 -45.9839 -45.9839 -45.9839 -45.9838
   -45.9838 -45.9838 -45.9837 -45.9837 -45.9837 -45.9837 -45.9836 -45.9836
    -3.1875  -3.1875  -1.0501  -1.0501  -0.4421  -0.4421   0.7791   0.7791
     0.9657   0.9657   1.2613   1.2613   1.9848   1.9848   2.2238   2.2238
     2.3088   2.3088   2.4487   2.4487   3.0408   3.0408   3.2878   3.2878
     4.4960   4.4961   5.1173   5.1173   5.1238   5.1238   5.3109   5.3109
     5.3179   5.3180   5.4933   5.4934   8.0674   8.0674   8.4259   8.4259
     9.6225   9.6226   9.8162   9.8162  10.7612  10.7612

     occupation numbers 
     1.0000   1.0000   1.0000   1.0000   1.0000   1.0000   1.0000   1.0000
     1.0000   1.0000   1.0000   1.0000   1.0000   1.0000   1.0000   1.0000
     1.0000   1.0000   1.0000   1.0000   1.0000   1.0000   1.0000   1.0000
     1.0000   1.0000   1.0000   1.0000   1.0000   1.0000   1.0000   1.0000
     1.0000   1.0000   1.0000   1.0000   1.0000   1.0000   1.0000   1.0000
     1.0000   1.0000   1.0000   1.0000   1.0000   1.0000   1.0000   1.0000
     1.0000   1.0000   1.0000   1.0000   0.0000   0.0000   0.0000   0.0000
     0.0000   0.0000   0.0000   0.0000   0.0000   0.0000

          k = 0.0000 0.2500 0.2500 ( 24958 PWs)   bands (ev):

   -79.7364 -79.7364 -79.7364 -79.7363 -45.9839 -45.9839 -45.9839 -45.9838
   -45.9838 -45.9838 -45.9837 -45.9837 -45.9837 -45.9837 -45.9836 -45.9836
    -3.6637  -2.0569  -2.0568  -1.1365  -0.3711   0.4096   0.4661   0.4661
     1.0310   1.0310   1.5965   1.5965   1.6821   1.8269   1.9044   2.1759
     2.2760   2.2760   2.5530   2.6139   3.0151   3.0151   3.1141   3.7313
     4.5772   4.5772   4.7123   4.8566   4.9879   5.0606   5.3968   5.3968
     5.4106   5.4538   5.4659   5.4659   7.7685   7.7685   7.8708   9.4458
     9.7493   9.7493   9.8773  10.1058  10.4704  10.5935

     occupation numbers 
     1.0000   1.0000   1.0000   1.0000   1.0000   1.0000   1.0000   1.0000
     1.0000   1.0000   1.0000   1.0000   1.0000   1.0000   1.0000   1.0000
     1.0000   1.0000   1.0000   1.0000   1.0000   1.0000   1.0000   1.0000
     1.0000   1.0000   1.0000   1.0000   1.0000   1.0000   1.0000   1.0000
     1.0000   1.0000   1.0000   1.0000   1.0000   1.0000   1.0000   1.0000
     1.0000   1.0000   1.0000   1.0000   1.0000   1.0000   1.0000   1.0000
     1.0000   1.0000   1.0000   1.0000   0.0000   0.0000   0.0000   0.0000
     0.0000   0.0000   0.0000   0.0000   0.0000   0.0000

          k = 0.0000 0.2500 0.3750 ( 24972 PWs)   bands (ev):

   -79.7364 -79.7364 -79.7364 -79.7363 -45.9839 -45.9839 -45.9839 -45.9839
   -45.9838 -45.9838 -45.9837 -45.9837 -45.9837 -45.9837 -45.9837 -45.9836
    -3.3954  -2.5738  -1.8105  -1.1721  -0.5699   0.0437   0.6199   0.7073
     1.1367   1.2387   1.4221   1.4450   1.5399   1.7786   1.8329   2.2446
     2.2900   2.3103   2.3825   2.4836   3.1961   3.2923   3.3096   3.7205
     4.6518   4.8244   4.8885   4.9092   5.1470   5.1588   5.2868   5.3161
     5.3496   5.4047   5.4475   5.4600   7.9302   8.1245   8.1570   8.8252
     9.8204   9.8863   9.8872   9.9429  10.2010  10.3117

     occupation numbers 
     1.0000   1.0000   1.0000   1.0000   1.0000   1.0000   1.0000   1.0000
     1.0000   1.0000   1.0000   1.0000   1.0000   1.0000   1.0000   1.0000
     1.0000   1.0000   1.0000   1.0000   1.0000   1.0000   1.0000   1.0000
     1.0000   1.0000   1.0000   1.0000   1.0000   1.0000   1.0000   1.0000
     1.0000   1.0000   1.0000   1.0000   1.0000   1.0000   1.0000   1.0000
     1.0000   1.0000   1.0000   1.0000   1.0000   1.0000   1.0000   1.0000
     1.0000   1.0000   1.0000   1.0000   0.0000   0.0000   0.0000   0.0000
     0.0000   0.0000   0.0000   0.0000   0.0000   0.0000

          k = 0.0000 0.2500-0.5000 ( 24922 PWs)   bands (ev):

   -79.7364 -79.7364 -79.7364 -79.7362 -45.9839 -45.9839 -45.9838 -45.9838
   -45.9838 -45.9838 -45.9837 -45.9837 -45.9837 -45.9837 -45.9836 -45.9836
    -3.0282  -3.0282  -1.4882  -1.4882  -0.3429  -0.3429   0.9019   0.9019
     1.0320   1.0320   1.3294   1.3294   1.6986   1.6986   2.0218   2.0218
     2.2799   2.2799   2.4435   2.4435   3.3968   3.3968   3.4907   3.4907
     4.7398   4.7398   5.1167   5.1167   5.1420   5.1420   5.2681   5.2682
     5.3005   5.3005   5.4531   5.4531   8.2650   8.2650   8.3733   8.3733
     9.5096   9.5097  10.0805  10.0805  10.0925  10.0925

     occupation numbers 
     1.0000   1.0000   1.0000   1.0000   1.0000   1.0000   1.0000   1.0000
     1.0000   1.0000   1.0000   1.0000   1.0000   1.0000   1.0000   1.0000
     1.0000   1.0000   1.0000   1.0000   1.0000   1.0000   1.0000   1.0000
     1.0000   1.0000   1.0000   1.0000   1.0000   1.0000   1.0000   1.0000
     1.0000   1.0000   1.0000   1.0000   1.0000   1.0000   1.0000   1.0000
     1.0000   1.0000   1.0000   1.0000   1.0000   1.0000   1.0000   1.0000
     1.0000   1.0000   1.0000   1.0000   0.0000   0.0000   0.0000   0.0000
     0.0000   0.0000   0.0000   0.0000   0.0000   0.0000

          k = 0.0000 0.3750 0.3750 ( 24992 PWs)   bands (ev):

   -79.7364 -79.7364 -79.7364 -79.7363 -45.9839 -45.9839 -45.9839 -45.9839
   -45.9838 -45.9838 -45.9838 -45.9837 -45.9837 -45.9837 -45.9836 -45.9836
    -3.1299  -2.3184  -2.3184  -1.5627  -0.4223   0.2913   0.2913   0.8257
     1.0289   1.4303   1.4303   1.4644   1.4644   1.6101   1.7262   1.9902
     2.3107   2.3755   2.3755   2.4608   3.4956   3.5056   3.5056   3.8813
     4.9374   4.9374   4.9932   4.9948   5.1538   5.1592   5.2515   5.2515
     5.2963   5.3868   5.3911   5.3911   8.2331   8.2670   8.2670   9.0142
     9.1594   9.5882   9.5882   9.6401  10.3418  10.3418

     occupation numbers 
     1.0000   1.0000   1.0000   1.0000   1.0000   1.0000   1.0000   1.0000
     1.0000   1.0000   1.0000   1.0000   1.0000   1.0000   1.0000   1.0000
     1.0000   1.0000   1.0000   1.0000   1.0000   1.0000   1.0000   1.0000
     1.0000   1.0000   1.0000   1.0000   1.0000   1.0000   1.0000   1.0000
     1.0000   1.0000   1.0000   1.0000   1.0000   1.0000   1.0000   1.0000
     1.0000   1.0000   1.0000   1.0000   1.0000   1.0000   1.0000   1.0000
     1.0000   1.0000   1.0000   1.0000   0.0000   0.0000   0.0000   0.0000
     0.0000   0.0000   0.0000   0.0000   0.0000   0.0000

          k = 0.0000 0.3750-0.5000 ( 24986 PWs)   bands (ev):

   -79.7364 -79.7364 -79.7364 -79.7363 -45.9839 -45.9839 -45.9839 -45.9839
   -45.9838 -45.9838 -45.9838 -45.9837 -45.9837 -45.9837 -45.9836 -45.9836
    -2.7668  -2.7668  -1.9736  -1.9736  -0.1084  -0.1084   0.6267   0.6267
     1.1016   1.1016   1.5502   1.5502   1.6386   1.6386   1.6864   1.6864
     2.3550   2.3550   2.4319   2.4319   3.6055   3.6055   3.7687   3.7687
     4.9893   4.9894   5.1175   5.1175   5.1643   5.1643   5.1995   5.1995
     5.2788   5.2789   5.3779   5.3780   8.4155   8.4155   8.5544   8.5544
     9.3288   9.3288   9.3419   9.3419  10.5119  10.5119

     occupation numbers 
     1.0000   1.0000   1.0000   1.0000   1.0000   1.0000   1.0000   1.0000
     1.0000   1.0000   1.0000   1.0000   1.0000   1.0000   1.0000   1.0000
     1.0000   1.0000   1.0000   1.0000   1.0000   1.0000   1.0000   1.0000
     1.0000   1.0000   1.0000   1.0000   1.0000   1.0000   1.0000   1.0000
     1.0000   1.0000   1.0000   1.0000   1.0000   1.0000   1.0000   1.0000
     1.0000   1.0000   1.0000   1.0000   1.0000   1.0000   1.0000   1.0000
     1.0000   1.0000   1.0000   1.0000   0.0000   0.0000   0.0000   0.0000
     0.0000   0.0000   0.0000   0.0000   0.0000   0.0000

          k = 0.0000-0.5000-0.5000 ( 25036 PWs)   bands (ev):

   -79.7364 -79.7364 -79.7364 -79.7363 -45.9839 -45.9839 -45.9839 -45.9839
   -45.9838 -45.9838 -45.9838 -45.9837 -45.9837 -45.9837 -45.9836 -45.9836
    -2.4105  -2.4105  -2.4105  -2.4105   0.2240   0.2240   0.2240   0.2240
     1.3687   1.3687   1.3687   1.3687   1.6237   1.6237   1.6237   1.6237
     2.4070   2.4070   2.4070   2.4070   3.7931   3.7931   3.7931   3.7931
     5.1388   5.1388   5.1388   5.1389   5.1505   5.1505   5.1505   5.1505
     5.2879   5.2879   5.2879   5.2879   8.6181   8.6181   8.6181   8.6181
     9.0942   9.0942   9.0942   9.0942  10.9472  10.9472

     occupation numbers 
     1.0000   1.0000   1.0000   1.0000   1.0000   1.0000   1.0000   1.0000
     1.0000   1.0000   1.0000   1.0000   1.0000   1.0000   1.0000   1.0000
     1.0000   1.0000   1.0000   1.0000   1.0000   1.0000   1.0000   1.0000
     1.0000   1.0000   1.0000   1.0000   1.0000   1.0000   1.0000   1.0000
     1.0000   1.0000   1.0000   1.0000   1.0000   1.0000   1.0000   1.0000
     1.0000   1.0000   1.0000   1.0000   1.0000   1.0000   1.0000   1.0000
     1.0000   1.0000   1.0000   1.0000   0.0000   0.0000   0.0000   0.0000
     0.0000   0.0000   0.0000   0.0000   0.0000   0.0000

          k = 0.1250 0.1250 0.1250 ( 24975 PWs)   bands (ev):

   -79.7364 -79.7364 -79.7364 -79.7363 -45.9840 -45.9839 -45.9839 -45.9838
   -45.9838 -45.9838 -45.9837 -45.9837 -45.9837 -45.9836 -45.9836 -45.9836
    -3.9358  -1.6440  -1.6440  -1.6440   0.3719   0.3719   0.3719   0.6120
     0.6120   0.6120   1.8393   1.8393   1.8393   2.0815   2.0815   2.0815
     2.1196   2.1196   2.6553   2.7600   2.7600   2.7600   3.3781   3.3781
     4.3299   4.3299   4.3299   4.8426   4.8426   4.8621   5.4748   5.4748
     5.4748   5.4840   5.4840   5.4841   7.5093   7.5093   7.5093   9.5056
     9.5056   9.5056  10.2817  10.2817  10.5519  10.9460

     occupation numbers 
     1.0000   1.0000   1.0000   1.0000   1.0000   1.0000   1.0000   1.0000
     1.0000   1.0000   1.0000   1.0000   1.0000   1.0000   1.0000   1.0000
     1.0000   1.0000   1.0000   1.0000   1.0000   1.0000   1.0000   1.0000
     1.0000   1.0000   1.0000   1.0000   1.0000   1.0000   1.0000   1.0000
     1.0000   1.0000   1.0000   1.0000   1.0000   1.0000   1.0000   1.0000
     1.0000   1.0000   1.0000   1.0000   1.0000   1.0000   1.0000   1.0000
     1.0000   1.0000   1.0000   1.0000   0.0000   0.0000   0.0000   0.0000
     0.0000   0.0000   0.0000   0.0000   0.0000   0.0000

          k = 0.1250 0.1250 0.2500 ( 24937 PWs)   bands (ev):

   -79.7364 -79.7364 -79.7364 -79.7362 -45.9839 -45.9839 -45.9839 -45.9838
   -45.9838 -45.9838 -45.9838 -45.9837 -45.9837 -45.9837 -45.9836 -45.9836
    -3.7722  -2.1582  -1.5012  -1.5012   0.1010   0.1010   0.5427   0.5427
     0.6103   1.0382   1.6298   1.6298   1.8959   1.9132   2.1346   2.1926
     2.1926   2.2813   2.3099   2.7422   2.9812   2.9812   3.1649   3.4996
     4.3896   4.5835   4.5835   4.7879   4.9783   5.0152   5.4192   5.4192
     5.4513   5.4546   5.4810   5.4810   7.5846   7.7471   7.7471   9.5043
     9.5822   9.7850   9.7850  10.3653  10.3767  10.7408

     occupation numbers 
     1.0000   1.0000   1.0000   1.0000   1.0000   1.0000   1.0000   1.0000
     1.0000   1.0000   1.0000   1.0000   1.0000   1.0000   1.0000   1.0000
     1.0000   1.0000   1.0000   1.0000   1.0000   1.0000   1.0000   1.0000
     1.0000   1.0000   1.0000   1.0000   1.0000   1.0000   1.0000   1.0000
     1.0000   1.0000   1.0000   1.0000   1.0000   1.0000   1.0000   1.0000
     1.0000   1.0000   1.0000   1.0000   1.0000   1.0000   1.0000   1.0000
     1.0000   1.0000   1.0000   1.0000   0.0000   0.0000   0.0000   0.0000
     0.0000   0.0000   0.0000   0.0000   0.0000   0.0000

          k = 0.1250 0.1250 0.3750 ( 24944 PWs)   bands (ev):

   -79.7364 -79.7364 -79.7364 -79.7363 -45.9839 -45.9839 -45.9839 -45.9838
   -45.9838 -45.9838 -45.9837 -45.9837 -45.9837 -45.9837 -45.9836 -45.9836
    -3.5029  -2.6778  -1.2851  -1.2851  -0.3339  -0.3339   0.7316   0.7316
     0.8576   1.3197   1.3197   1.4757   1.5396   2.0145   2.0517   2.1391
     2.2423   2.2423   2.6378   2.7391   2.9453   3.2166   3.2166   3.3832
     4.4803   4.6976   4.8721   4.8721   5.1432   5.1869   5.3064   5.3064
     5.3946   5.4028   5.4809   5.4809   7.7660   8.1218   8.1218   8.7146
     9.7131  10.0007  10.0007  10.1344  10.2623  10.2623

     occupation numbers 
     1.0000   1.0000   1.0000   1.0000   1.0000   1.0000   1.0000   1.0000
     1.0000   1.0000   1.0000   1.0000   1.0000   1.0000   1.0000   1.0000
     1.0000   1.0000   1.0000   1.0000   1.0000   1.0000   1.0000   1.0000
     1.0000   1.0000   1.0000   1.0000   1.0000   1.0000   1.0000   1.0000
     1.0000   1.0000   1.0000   1.0000   1.0000   1.0000   1.0000   1.0000
     1.0000   1.0000   1.0000   1.0000   1.0000   1.0000   1.0000   1.0000
     1.0000   1.0000   1.0000   1.0000   0.0000   0.0000   0.0000   0.0000
     0.0000   0.0000   0.0000   0.0000   0.0000   0.0000

          k = 0.1250 0.1250-0.5000 ( 24986 PWs)   bands (ev):

   -79.7364 -79.7364 -79.7364 -79.7363 -45.9839 -45.9839 -45.9839 -45.9838
   -45.9838 -45.9838 -45.9837 -45.9837 -45.9837 -45.9837 -45.9837 -45.9836
    -3.1342  -3.1342  -1.1255  -1.1255  -0.5720  -0.5720   0.9405   0.9405
     1.0650   1.0650   1.1729   1.1729   1.7961   1.7961   2.1024   2.1024
     2.2542   2.2542   2.7949   2.7949   3.0604   3.0604   3.3098   3.3098
     4.5889   4.5889   5.1239   5.1240   5.1241   5.1242   5.2916   5.2917
     5.3177   5.3178   5.4809   5.4809   8.1248   8.1248   8.3977   8.3977
     9.5770   9.5770   9.8999   9.8999  10.6793  10.6794

     occupation numbers 
     1.0000   1.0000   1.0000   1.0000   1.0000   1.0000   1.0000   1.0000
     1.0000   1.0000   1.0000   1.0000   1.0000   1.0000   1.0000   1.0000
     1.0000   1.0000   1.0000   1.0000   1.0000   1.0000   1.0000   1.0000
     1.0000   1.0000   1.0000   1.0000   1.0000   1.0000   1.0000   1.0000
     1.0000   1.0000   1.0000   1.0000   1.0000   1.0000   1.0000   1.0000
     1.0000   1.0000   1.0000   1.0000   1.0000   1.0000   1.0000   1.0000
     1.0000   1.0000   1.0000   1.0000   0.0000   0.0000   0.0000   0.0000
     0.0000   0.0000   0.0000   0.0000   0.0000   0.0000

          k = 0.1250 0.2500 0.2500 ( 24973 PWs)   bands (ev):

   -79.7364 -79.7364 -79.7364 -79.7363 -45.9839 -45.9839 -45.9839 -45.9838
   -45.9838 -45.9838 -45.9837 -45.9837 -45.9837 -45.9837 -45.9836 -45.9836
    -3.6095  -2.0085  -2.0085  -1.3805  -0.3361   0.2521   0.2521   0.6524
     1.0052   1.0052   1.6993   1.7138   1.7211   1.7211   1.9063   2.1174
     2.2593   2.3570   2.3570   3.0123   3.0123   3.0995   3.1105   3.6543
     4.6326   4.6326   4.7277   4.9205   4.9713   5.0646   5.3967   5.3968
     5.4062   5.4425   5.4501   5.4501   7.8085   7.8085   7.8838   9.4716
     9.8158   9.8607   9.8607  10.1252  10.3593  10.4154

     occupation numbers 
     1.0000   1.0000   1.0000   1.0000   1.0000   1.0000   1.0000   1.0000
     1.0000   1.0000   1.0000   1.0000   1.0000   1.0000   1.0000   1.0000
     1.0000   1.0000   1.0000   1.0000   1.0000   1.0000   1.0000   1.0000
     1.0000   1.0000   1.0000   1.0000   1.0000   1.0000   1.0000   1.0000
     1.0000   1.0000   1.0000   1.0000   1.0000   1.0000   1.0000   1.0000
     1.0000   1.0000   1.0000   1.0000   1.0000   1.0000   1.0000   1.0000
     1.0000   1.0000   1.0000   1.0000   0.0000   0.0000   0.0000   0.0000
     0.0000   0.0000   0.0000   0.0000   0.0000   0.0000

          k = 0.1250 0.2500 0.3750 ( 24979 PWs)   bands (ev):

   -79.7364 -79.7364 -79.7364 -79.7363 -45.9839 -45.9839 -45.9839 -45.9838
   -45.9838 -45.9838 -45.9837 -45.9837 -45.9837 -45.9837 -45.9836 -45.9836
    -3.3419  -2.5229  -1.7687  -1.2813  -0.6679  -0.1946   0.5002   0.8424
     1.1222   1.2535   1.3818   1.4433   1.5643   1.8057   1.8403   2.0371
     2.3235   2.3615   2.5866   2.9162   3.1496   3.2920   3.3113   3.6588
     4.7072   4.8785   4.9061   4.9208   5.1065   5.1834   5.2892   5.3121
     5.3461   5.3912   5.4359   5.4455   7.9675   8.1322   8.1516   8.8512
     9.8012   9.8475   9.8731   9.9833  10.2911  10.3280

     occupation numbers 
     1.0000   1.0000   1.0000   1.0000   1.0000   1.0000   1.0000   1.0000
     1.0000   1.0000   1.0000   1.0000   1.0000   1.0000   1.0000   1.0000
     1.0000   1.0000   1.0000   1.0000   1.0000   1.0000   1.0000   1.0000
     1.0000   1.0000   1.0000   1.0000   1.0000   1.0000   1.0000   1.0000
     1.0000   1.0000   1.0000   1.0000   1.0000   1.0000   1.0000   1.0000
     1.0000   1.0000   1.0000   1.0000   1.0000   1.0000   1.0000   1.0000
     1.0000   1.0000   1.0000   1.0000   0.0000   0.0000   0.0000   0.0000
     0.0000   0.0000   0.0000   0.0000   0.0000   0.0000

          k = 0.1250 0.2500-0.5000 ( 24972 PWs)   bands (ev):

   -79.7364 -79.7364 -79.7364 -79.7363 -45.9839 -45.9839 -45.9839 -45.9839
   -45.9838 -45.9838 -45.9837 -45.9837 -45.9837 -45.9837 -45.9836 -45.9836
    -2.9757  -2.9757  -1.4710  -1.4710  -0.5644  -0.5644   0.8380   0.8380
     1.0809   1.0809   1.3791   1.3792   1.6374   1.6374   1.9498   1.9499
     2.3509   2.3509   2.7582   2.7582   3.4021   3.4021   3.4326   3.4326
     4.7952   4.7952   5.1230   5.1231   5.1428   5.1429   5.2481   5.2482
     5.3022   5.3022   5.4402   5.4403   8.2979   8.2979   8.3610   8.3610
     9.4713   9.4713  10.0416  10.0416  10.1496  10.1496

     occupation numbers 
     1.0000   1.0000   1.0000   1.0000   1.0000   1.0000   1.0000   1.0000
     1.0000   1.0000   1.0000   1.0000   1.0000   1.0000   1.0000   1.0000
     1.0000   1.0000   1.0000   1.0000   1.0000   1.0000   1.0000   1.0000
     1.0000   1.0000   1.0000   1.0000   1.0000   1.0000   1.0000   1.0000
     1.0000   1.0000   1.0000   1.0000   1.0000   1.0000   1.0000   1.0000
     1.0000   1.0000   1.0000   1.0000   1.0000   1.0000   1.0000   1.0000
     1.0000   1.0000   1.0000   1.0000   0.0000   0.0000   0.0000   0.0000
     0.0000   0.0000   0.0000   0.0000   0.0000   0.0000

          k = 0.1250 0.3750 0.3750 ( 24969 PWs)   bands (ev):

   -79.7364 -79.7364 -79.7364 -79.7363 -45.9839 -45.9839 -45.9839 -45.9839
   -45.9838 -45.9838 -45.9837 -45.9837 -45.9837 -45.9837 -45.9836 -45.9836
    -3.0773  -2.2705  -2.2705  -1.5487  -0.6417   0.0520   0.0520   0.8083
     1.0260   1.4073   1.4073   1.6079   1.6079   1.6209   1.7287   1.8903
     2.4205   2.5231   2.5231   2.7759   3.4810   3.4810   3.4887   3.8326
     4.9565   4.9565   5.0024   5.0297   5.0996   5.1922   5.2512   5.2512
     5.2961   5.3718   5.3777   5.3777   8.2435   8.2692   8.2692   9.0256
     9.1578   9.5786   9.5786   9.5914  10.4181  10.4182

     occupation numbers 
     1.0000   1.0000   1.0000   1.0000   1.0000   1.0000   1.0000   1.0000
     1.0000   1.0000   1.0000   1.0000   1.0000   1.0000   1.0000   1.0000
     1.0000   1.0000   1.0000   1.0000   1.0000   1.0000   1.0000   1.0000
     1.0000   1.0000   1.0000   1.0000   1.0000   1.0000   1.0000   1.0000
     1.0000   1.0000   1.0000   1.0000   1.0000   1.0000   1.0000   1.0000
     1.0000   1.0000   1.0000   1.0000   1.0000   1.0000   1.0000   1.0000
     1.0000   1.0000   1.0000   1.0000   0.0000   0.0000   0.0000   0.0000
     0.0000   0.0000   0.0000   0.0000   0.0000   0.0000

          k = 0.1250 0.3750-0.5000 ( 24974 PWs)   bands (ev):

   -79.7364 -79.7364 -79.7364 -79.7363 -45.9839 -45.9839 -45.9839 -45.9839
   -45.9838 -45.9838 -45.9837 -45.9837 -45.9837 -45.9837 -45.9836 -45.9836
    -2.7159  -2.7159  -1.9332  -1.9332  -0.3503  -0.3503   0.3921   0.3921
     1.2590   1.2590   1.5700   1.5700   1.6145   1.6145   1.7404   1.7404
     2.4786   2.4786   2.6549   2.6549   3.5944   3.5944   3.7316   3.7316
     5.0113   5.0114   5.1211   5.1211   5.1676   5.1677   5.1860   5.1860
     5.2763   5.2764   5.3644   5.3644   8.4175   8.4175   8.5621   8.5621
     9.3018   9.3018   9.3392   9.3392  10.4778  10.4778

     occupation numbers 
     1.0000   1.0000   1.0000   1.0000   1.0000   1.0000   1.0000   1.0000
     1.0000   1.0000   1.0000   1.0000   1.0000   1.0000   1.0000   1.0000
     1.0000   1.0000   1.0000   1.0000   1.0000   1.0000   1.0000   1.0000
     1.0000   1.0000   1.0000   1.0000   1.0000   1.0000   1.0000   1.0000
     1.0000   1.0000   1.0000   1.0000   1.0000   1.0000   1.0000   1.0000
     1.0000   1.0000   1.0000   1.0000   1.0000   1.0000   1.0000   1.0000
     1.0000   1.0000   1.0000   1.0000   0.0000   0.0000   0.0000   0.0000
     0.0000   0.0000   0.0000   0.0000   0.0000   0.0000

          k = 0.1250-0.5000-0.5000 ( 24984 PWs)   bands (ev):

   -79.7364 -79.7364 -79.7364 -79.7363 -45.9839 -45.9839 -45.9839 -45.9839
   -45.9838 -45.9838 -45.9838 -45.9837 -45.9837 -45.9837 -45.9836 -45.9836
    -2.3628  -2.3628  -2.3628  -2.3628  -0.0200  -0.0200  -0.0200  -0.0200
     1.4804   1.4804   1.4804   1.4804   1.6296   1.6296   1.6296   1.6297
     2.5742   2.5742   2.5742   2.5742   3.7720   3.7720   3.7720   3.7720
     5.1346   5.1346   5.1346   5.1347   5.1607   5.1607   5.1608   5.1608
     5.2758   5.2758   5.2758   5.2758   8.6274   8.6274   8.6274   8.6274
     9.0783   9.0783   9.0783   9.0783  10.7744  10.7744

     occupation numbers 
     1.0000   1.0000   1.0000   1.0000   1.0000   1.0000   1.0000   1.0000
     1.0000   1.0000   1.0000   1.0000   1.0000   1.0000   1.0000   1.0000
     1.0000   1.0000   1.0000   1.0000   1.0000   1.0000   1.0000   1.0000
     1.0000   1.0000   1.0000   1.0000   1.0000   1.0000   1.0000   1.0000
     1.0000   1.0000   1.0000   1.0000   1.0000   1.0000   1.0000   1.0000
     1.0000   1.0000   1.0000   1.0000   1.0000   1.0000   1.0000   1.0000
     1.0000   1.0000   1.0000   1.0000   0.0000   0.0000   0.0000   0.0000
     0.0000   0.0000   0.0000   0.0000   0.0000   0.0000

          k = 0.2500 0.2500 0.2500 ( 24993 PWs)   bands (ev):

   -79.7364 -79.7364 -79.7364 -79.7363 -45.9839 -45.9839 -45.9839 -45.9838
   -45.9838 -45.9838 -45.9837 -45.9837 -45.9837 -45.9837 -45.9836 -45.9836
    -3.4480  -1.8683  -1.8683  -1.8683  -0.1938  -0.1938  -0.1937   1.0652
     1.0652   1.0652   1.3035   1.7461   1.7461   1.7461   1.9077   1.9077
     2.5242   2.5242   2.5242   3.1068   3.1068   3.1068   3.4840   3.4840
     4.7724   4.7724   4.7724   4.9634   5.0570   5.0570   5.3904   5.3904
     5.3904   5.4041   5.4041   5.4041   7.9403   7.9403   7.9403   9.5475
     9.5475  10.0955  10.1783  10.1783  10.1783  10.2352

     occupation numbers 
     1.0000   1.0000   1.0000   1.0000   1.0000   1.0000   1.0000   1.0000
     1.0000   1.0000   1.0000   1.0000   1.0000   1.0000   1.0000   1.0000
     1.0000   1.0000   1.0000   1.0000   1.0000   1.0000   1.0000   1.0000
     1.0000   1.0000   1.0000   1.0000   1.0000   1.0000   1.0000   1.0000
     1.0000   1.0000   1.0000   1.0000   1.0000   1.0000   1.0000   1.0000
     1.0000   1.0000   1.0000   1.0000   1.0000   1.0000   1.0000   1.0000
     1.0000   1.0000   1.0000   1.0000   0.0000   0.0000   0.0000   0.0000
     0.0000   0.0000   0.0000   0.0000   0.0000   0.0000

          k = 0.2500 0.2500 0.3750 ( 24983 PWs)   bands (ev):

   -79.7364 -79.7364 -79.7364 -79.7363 -45.9839 -45.9839 -45.9839 -45.9839
   -45.9838 -45.9838 -45.9837 -45.9837 -45.9837 -45.9837 -45.9836 -45.9836
    -3.1825  -2.3727  -1.6615  -1.6615  -0.6281  -0.6281   0.0552   0.8247
     1.1949   1.1949   1.3885   1.6264   1.6264   1.7717   1.8078   1.8972
     2.5716   2.5716   2.9427   3.1233   3.3107   3.3326   3.3326   3.5842
     4.8407   4.9540   4.9540   4.9811   5.0728   5.1915   5.2956   5.2956
     5.3270   5.3557   5.3985   5.3986   8.0909   8.1745   8.1745   8.9390
     9.6691   9.7124   9.7125  10.0260  10.1075  10.2395

     occupation numbers 
[...]
     atom    8 type  3   force =    -0.00000000   -0.00000000    0.00000000
     atom    9 type  1   force =    -0.00000000   -0.00000000   -0.00000000
     atom   10 type  1   force =    -0.00000000    0.00000000    0.00000000
     atom   11 type  1   force =     0.00000000   -0.00000000    0.00000000
     atom   12 type  1   force =     0.00000000    0.00000000   -0.00000000
     atom   13 type  2   force =     0.00000000   -3.00592336   -0.00000000
     atom   14 type  2   force =    -0.00000000   -0.00000000    3.00592336
     atom   15 type  2   force =     0.00000000   -0.00000000   -3.00592336
     atom   16 type  2   force =    -0.00000000    3.00592336   -0.00000000
     atom   17 type  2   force =    -3.00592336   -0.00000000   -0.00000000
     atom   18 type  2   force =     3.00592336    0.00000000   -0.00000000
     atom   19 type  2   force =     0.00000000   -3.00592336    0.00000000
     atom   20 type  2   force =    -0.00000000   -0.00000000    3.00592336
     atom   21 type  2   force =     0.00000000    0.00000000   -3.00592336
     atom   22 type  2   force =    -0.00000000    3.00592336   -0.00000000
     atom   23 type  2   force =    -3.00592336   -0.00000000    0.00000000
     atom   24 type  2   force =     3.00592336    0.00000000   -0.00000000
     atom   25 type  2   force =     0.00000000   -3.00592336    0.00000000
     atom   26 type  2   force =    -0.00000000   -0.00000000    3.00592336
     atom   27 type  2   force =    -0.00000000   -0.00000000   -3.00592336
     atom   28 type  2   force =    -0.00000000    3.00592336   -0.00000000
     atom   29 type  2   force =    -3.00592336   -0.00000000    0.00000000
     atom   30 type  2   force =     3.00592336    0.00000000   -0.00000000
     atom   31 type  2   force =     0.00000000   -3.00592336   -0.00000000
     atom   32 type  2   force =    -0.00000000   -0.00000000    3.00592336
     atom   33 type  2   force =    -0.00000000    0.00000000   -3.00592336
     atom   34 type  2   force =    -0.00000000    3.00592336   -0.00000000
     atom   35 type  2   force =    -3.00592336   -0.00000000   -0.00000000
     atom   36 type  2   force =     3.00592336   -0.00000000   -0.00000000
     The local contribution  to forces
     atom    1 type  3   force =    -0.00000091   -0.00000091    0.00000091
     atom    2 type  3   force =    -0.00000091   -0.00000091   -0.00000091
     atom    3 type  3   force =    -0.00000091    0.00000091   -0.00000091
     atom    4 type  3   force =    -0.00000091    0.00000091    0.00000091
     atom    5 type  3   force =     0.00000091   -0.00000091   -0.00000091
     atom    6 type  3   force =     0.00000091   -0.00000091    0.00000091
     atom    7 type  3   force =     0.00000091    0.00000091    0.00000091
     atom    8 type  3   force =     0.00000091    0.00000091   -0.00000091
     atom    9 type  1   force =     0.00000000    0.00000000    0.00000000
     atom   10 type  1   force =     0.00000000    0.00000000    0.00000000
     atom   11 type  1   force =     0.00000000    0.00000000    0.00000000
     atom   12 type  1   force =     0.00000000    0.00000000    0.00000000
     atom   13 type  2   force =    -0.00000000    2.98006351   -0.00000000
     atom   14 type  2   force =     0.00000000    0.00000000   -2.98007434
     atom   15 type  2   force =    -0.00000000    0.00000000    2.98007434
     atom   16 type  2   force =     0.00000000   -2.98007434    0.00000000
     atom   17 type  2   force =     2.98006351   -0.00000000    0.00000000
     atom   18 type  2   force =    -2.98006351    0.00000000    0.00000000
     atom   19 type  2   force =    -0.00000000    2.98007434   -0.00000000
     atom   20 type  2   force =     0.00000000    0.00000000   -2.98007439
     atom   21 type  2   force =    -0.00000000   -0.00000000    2.98007439
     atom   22 type  2   force =    -0.00000000   -2.98007439    0.00000000
     atom   23 type  2   force =     2.98007439    0.00000000   -0.00000000
     atom   24 type  2   force =    -2.98007439   -0.00000000    0.00000000
     atom   25 type  2   force =     0.00000000    2.98007439   -0.00000000
     atom   26 type  2   force =     0.00000000   -0.00000000   -2.98006351
     atom   27 type  2   force =     0.00000000    0.00000000    2.98006351
     atom   28 type  2   force =     0.00000000   -2.98007434    0.00000000
     atom   29 type  2   force =     2.98007434   -0.00000000   -0.00000000
     atom   30 type  2   force =    -2.98007434    0.00000000    0.00000000
     atom   31 type  2   force =     0.00000000    2.98007434   -0.00000000
     atom   32 type  2   force =     0.00000000    0.00000000   -2.98007434
     atom   33 type  2   force =     0.00000000   -0.00000000    2.98007434
     atom   34 type  2   force =     0.00000000   -2.98006351    0.00000000
     atom   35 type  2   force =     2.98007434   -0.00000000    0.00000000
     atom   36 type  2   force =    -2.98007434    0.00000000    0.00000000
     The core correction contribution to forces
     atom    1 type  3   force =     0.00000009    0.00000009   -0.00000009
     atom    2 type  3   force =     0.00000009    0.00000009    0.00000009
     atom    3 type  3   force =     0.00000009   -0.00000009    0.00000009
     atom    4 type  3   force =     0.00000009   -0.00000009   -0.00000009
     atom    5 type  3   force =    -0.00000009    0.00000009    0.00000009
     atom    6 type  3   force =    -0.00000009    0.00000009   -0.00000009
     atom    7 type  3   force =    -0.00000009   -0.00000009   -0.00000009
     atom    8 type  3   force =    -0.00000009   -0.00000009    0.00000009
     atom    9 type  1   force =     0.00000000    0.00000000    0.00000000
     atom   10 type  1   force =     0.00000000   -0.00000000   -0.00000000
     atom   11 type  1   force =    -0.00000000   -0.00000000   -0.00000000
     atom   12 type  1   force =    -0.00000000   -0.00000000   -0.00000000
     atom   13 type  2   force =     0.00000000    0.00000000    0.00000000
     atom   14 type  2   force =     0.00000000    0.00000000    0.00000000
     atom   15 type  2   force =     0.00000000    0.00000000    0.00000000
     atom   16 type  2   force =     0.00000000    0.00000000    0.00000000
     atom   17 type  2   force =     0.00000000    0.00000000    0.00000000
     atom   18 type  2   force =     0.00000000    0.00000000    0.00000000
     atom   19 type  2   force =     0.00000000    0.00000000    0.00000000
     atom   20 type  2   force =     0.00000000    0.00000000    0.00000000
     atom   21 type  2   force =     0.00000000    0.00000000    0.00000000
     atom   22 type  2   force =     0.00000000    0.00000000    0.00000000
     atom   23 type  2   force =     0.00000000    0.00000000    0.00000000
     atom   24 type  2   force =     0.00000000    0.00000000    0.00000000
     atom   25 type  2   force =     0.00000000    0.00000000    0.00000000
     atom   26 type  2   force =     0.00000000    0.00000000    0.00000000
     atom   27 type  2   force =     0.00000000    0.00000000    0.00000000
     atom   28 type  2   force =     0.00000000    0.00000000    0.00000000
     atom   29 type  2   force =     0.00000000    0.00000000    0.00000000
     atom   30 type  2   force =     0.00000000    0.00000000    0.00000000
     atom   31 type  2   force =     0.00000000    0.00000000    0.00000000
     atom   32 type  2   force =     0.00000000    0.00000000    0.00000000
     atom   33 type  2   force =     0.00000000    0.00000000    0.00000000
     atom   34 type  2   force =     0.00000000    0.00000000    0.00000000
     atom   35 type  2   force =     0.00000000    0.00000000    0.00000000
     atom   36 type  2   force =     0.00000000    0.00000000    0.00000000
     The Hubbard contrib.    to forces
     atom    1 type  3   force =     0.00000000    0.00000000    0.00000000
     atom    2 type  3   force =     0.00000000    0.00000000    0.00000000
     atom    3 type  3   force =     0.00000000    0.00000000    0.00000000
     atom    4 type  3   force =     0.00000000    0.00000000    0.00000000
     atom    5 type  3   force =     0.00000000    0.00000000    0.00000000
     atom    6 type  3   force =     0.00000000    0.00000000    0.00000000
     atom    7 type  3   force =     0.00000000    0.00000000    0.00000000
     atom    8 type  3   force =     0.00000000    0.00000000    0.00000000
     atom    9 type  1   force =     0.00000000    0.00000000    0.00000000
     atom   10 type  1   force =     0.00000000    0.00000000    0.00000000
     atom   11 type  1   force =     0.00000000    0.00000000    0.00000000
     atom   12 type  1   force =     0.00000000    0.00000000    0.00000000
     atom   13 type  2   force =     0.00000000    0.00000000    0.00000000
     atom   14 type  2   force =     0.00000000    0.00000000    0.00000000
     atom   15 type  2   force =     0.00000000    0.00000000    0.00000000
     atom   16 type  2   force =     0.00000000    0.00000000    0.00000000
     atom   17 type  2   force =     0.00000000    0.00000000    0.00000000
     atom   18 type  2   force =     0.00000000    0.00000000    0.00000000
     atom   19 type  2   force =     0.00000000    0.00000000    0.00000000
     atom   20 type  2   force =     0.00000000    0.00000000    0.00000000
     atom   21 type  2   force =     0.00000000    0.00000000    0.00000000
     atom   22 type  2   force =     0.00000000    0.00000000    0.00000000
     atom   23 type  2   force =     0.00000000    0.00000000    0.00000000
     atom   24 type  2   force =     0.00000000    0.00000000    0.00000000
     atom   25 type  2   force =     0.00000000    0.00000000    0.00000000
     atom   26 type  2   force =     0.00000000    0.00000000    0.00000000
     atom   27 type  2   force =     0.00000000    0.00000000    0.00000000
     atom   28 type  2   force =     0.00000000    0.00000000    0.00000000
     atom   29 type  2   force =     0.00000000    0.00000000    0.00000000
     atom   30 type  2   force =     0.00000000    0.00000000    0.00000000
     atom   31 type  2   force =     0.00000000    0.00000000    0.00000000
     atom   32 type  2   force =     0.00000000    0.00000000    0.00000000
     atom   33 type  2   force =     0.00000000    0.00000000    0.00000000
     atom   34 type  2   force =     0.00000000    0.00000000    0.00000000
     atom   35 type  2   force =     0.00000000    0.00000000    0.00000000
     atom   36 type  2   force =     0.00000000    0.00000000    0.00000000
     The SCF correction term to forces
     atom    1 type  3   force =     0.00000170    0.00000170   -0.00000170
     atom    2 type  3   force =     0.00000170    0.00000170    0.00000170
     atom    3 type  3   force =     0.00000170   -0.00000170    0.00000170
     atom    4 type  3   force =     0.00000170   -0.00000170   -0.00000170
     atom    5 type  3   force =    -0.00000170    0.00000170    0.00000170
     atom    6 type  3   force =    -0.00000170    0.00000170   -0.00000170
     atom    7 type  3   force =    -0.00000170   -0.00000170   -0.00000170
     atom    8 type  3   force =    -0.00000170   -0.00000170    0.00000170
     atom    9 type  1   force =    -0.00000000   -0.00000000   -0.00000000
     atom   10 type  1   force =    -0.00000000    0.00000000   -0.00000000
     atom   11 type  1   force =     0.00000000   -0.00000000   -0.00000000
     atom   12 type  1   force =     0.00000000    0.00000000   -0.00000000
     atom   13 type  2   force =    -0.00000000    0.00001089   -0.00000000
     atom   14 type  2   force =    -0.00000000   -0.00000000   -0.00000204
     atom   15 type  2   force =    -0.00000000    0.00000000    0.00000204
     atom   16 type  2   force =     0.00000000   -0.00000204   -0.00000000
     atom   17 type  2   force =     0.00001089   -0.00000000   -0.00000000
     atom   18 type  2   force =    -0.00001089    0.00000000   -0.00000000
     atom   19 type  2   force =     0.00000000    0.00000204   -0.00000000
     atom   20 type  2   force =    -0.00000000    0.00000000   -0.00000206
     atom   21 type  2   force =    -0.00000000    0.00000000    0.00000206
     atom   22 type  2   force =    -0.00000000   -0.00000206    0.00000000
     atom   23 type  2   force =     0.00000206    0.00000000   -0.00000000
     atom   24 type  2   force =    -0.00000206   -0.00000000    0.00000000
     atom   25 type  2   force =     0.00000000    0.00000206    0.00000000
     atom   26 type  2   force =    -0.00000000    0.00000000   -0.00001089
     atom   27 type  2   force =     0.00000000   -0.00000000    0.00001089
     atom   28 type  2   force =     0.00000000   -0.00000204    0.00000000
     atom   29 type  2   force =     0.00000204    0.00000000   -0.00000000
     atom   30 type  2   force =    -0.00000204   -0.00000000    0.00000000
     atom   31 type  2   force =    -0.00000000    0.00000204   -0.00000000
     atom   32 type  2   force =     0.00000000   -0.00000000   -0.00000204
     atom   33 type  2   force =    -0.00000000   -0.00000000    0.00000204
     atom   34 type  2   force =    -0.00000000   -0.00001089   -0.00000000
     atom   35 type  2   force =     0.00000204    0.00000000   -0.00000000
     atom   36 type  2   force =    -0.00000204    0.00000000   -0.00000000

     Total force =     0.021612     Total SCF correction =     0.000029


     Computing stress (Cartesian axis) and pressure

          total   stress  (Ry/bohr**3)                   (kbar)     P=       -0.01
  -0.00000005   0.00000000   0.00000000           -0.01        0.00        0.00
   0.00000000  -0.00000005   0.00000000            0.00       -0.01        0.00
   0.00000000   0.00000000  -0.00000005            0.00        0.00       -0.01

     kinetic stress (kbar)  17234.49      0.00      0.00
                                0.00  17234.49      0.00
                                0.00      0.00  17234.49

     local   stress (kbar)  -1925.36     -0.00      0.00
                               -0.00  -1925.36      0.00
                                0.00      0.00  -1925.36

     nonloc. stress (kbar) -11918.64      0.00      0.00
                                0.00 -11918.64      0.00
                                0.00      0.00 -11918.64

     hartree stress (kbar)  13890.50     -0.00      0.00
                               -0.00  13890.50     -0.00
                                0.00     -0.00  13890.50

     exc-cor stress (kbar)   -633.28     -0.00      0.00
                               -0.00   -633.28      0.00
                                0.00      0.00   -633.28

     corecor stress (kbar)  -3458.70      0.00     -0.00
                                0.00  -3458.70     -0.00
                               -0.00     -0.00  -3458.70

     ewald   stress (kbar) -13189.02     -0.00      0.00
                               -0.00 -13189.02      0.00
                                0.00      0.00 -13189.02

     hubbard stress (kbar)      0.00      0.00      0.00
                                0.00      0.00      0.00
                                0.00      0.00      0.00

     DFT-D   stress (kbar)      0.00      0.00      0.00
                                0.00      0.00      0.00
                                0.00      0.00      0.00

     XDM     stress (kbar)      0.00      0.00      0.00
                                0.00      0.00      0.00
                                0.00      0.00      0.00

     dft-nl  stress (kbar)      0.00      0.00      0.00
                                0.00      0.00      0.00
                                0.00      0.00      0.00

     TS-vdW  stress (kbar)      0.00      0.00      0.00
                                0.00      0.00      0.00
                                0.00      0.00      0.00

     MDB     stress (kbar)      0.00      0.00      0.00
                                0.00      0.00      0.00
                                0.00      0.00      0.00

     3D-RISM stress (kbar)      0.00      0.00      0.00
                                0.00      0.00      0.00
                                0.00      0.00      0.00


     Writing all to output data dir ./out/fe-kp-8.save/

     init_run     :      2.68s CPU      3.04s WALL (       1 calls)
     electrons    :     58.81s CPU     68.93s WALL (       1 calls)
     forces       :      0.93s CPU      1.04s WALL (       1 calls)
     stress       :      6.44s CPU      6.61s WALL (       1 calls)

     Called by init_run:
     wfcinit      :      1.67s CPU      1.86s WALL (       1 calls)
     wfcinit:atom :      0.02s CPU      0.02s WALL (      18 calls)
     wfcinit:wfcr :      1.54s CPU      1.73s WALL (      18 calls)
     potinit      :      0.36s CPU      0.42s WALL (       1 calls)
     hinit0       :      0.21s CPU      0.26s WALL (       1 calls)

     Called by electrons:
     c_bands      :     48.34s CPU     55.60s WALL (      15 calls)
     sum_band     :      7.66s CPU      9.32s WALL (      15 calls)
     v_of_rho     :      0.77s CPU      0.88s WALL (      16 calls)
     v_h          :      0.08s CPU      0.09s WALL (      16 calls)
     v_xc         :      0.78s CPU      0.88s WALL (      18 calls)
     newd         :      1.44s CPU      1.88s WALL (      16 calls)
     PAW_pot      :      0.51s CPU      1.15s WALL (      16 calls)
     mix_rho      :      0.12s CPU      0.13s WALL (      15 calls)

     Called by c_bands:
     init_us_2    :      0.89s CPU      0.94s WALL (     594 calls)
     init_us_2:cp :      0.89s CPU      0.94s WALL (     594 calls)
     cegterg      :     46.22s CPU     51.71s WALL (     270 calls)

     Called by sum_band:
     sum_band:wei :      0.01s CPU      0.01s WALL (      15 calls)
     sum_band:loo :      6.00s CPU      6.93s WALL (      15 calls)
     sum_band:buf :      0.14s CPU      0.15s WALL (     270 calls)
     sum_band:ini :      0.39s CPU      0.40s WALL (     270 calls)
     sum_band:cal :      0.98s CPU      1.14s WALL (     270 calls)
     sum_band:bec :      0.03s CPU      0.03s WALL (     270 calls)
     addusdens    :      1.53s CPU      2.19s WALL (      15 calls)
                                        0.00s GPU  (      15 calls)
     addusd:skk   :      0.07s CPU      0.07s WALL (      45 calls)
                                        0.00s GPU  (      45 calls)

     Called by *egterg:
     cdiaghg      :      5.99s CPU      6.34s WALL (    1347 calls)
     cegterg:over :      2.32s CPU      2.57s WALL (    1077 calls)
     cegterg:upda :      1.47s CPU      1.51s WALL (    1077 calls)
     cegterg:last :      2.83s CPU      2.85s WALL (     607 calls)
     h_psi        :     30.97s CPU     35.77s WALL (    1365 calls)
     s_psi        :      2.47s CPU      2.51s WALL (    1365 calls)
     g_psi        :      0.08s CPU      0.08s WALL (    1077 calls)

     Called by h_psi:
     h_psi:calbec :      4.12s CPU      4.63s WALL (    1365 calls)
     vloc_psi     :     23.60s CPU     27.79s WALL (    1365 calls)
     add_vuspsi   :      2.95s CPU      3.03s WALL (    1365 calls)

     General routines
     calbec       :      5.42s CPU      6.18s WALL (    1725 calls)
     fft          :      0.60s CPU      0.71s WALL (     231 calls)
     ffts         :      0.16s CPU      0.17s WALL (      31 calls)
     fftw         :     23.01s CPU     27.10s WALL (  112446 calls)
     interpolate  :      0.20s CPU      0.21s WALL (      16 calls)

     Parallel routines

     PAW routines
     PAW_pot      :      0.51s CPU      1.15s WALL (      16 calls)
     PAW_symme    :      0.01s CPU      0.02s WALL (      31 calls)

     PWSCF        :   1m 9.50s CPU   1m21.61s WALL


   This run was terminated on:  22:35: 6  13Jun2025            

=------------------------------------------------------------------------------=
   JOB DONE.
=------------------------------------------------------------------------------=
